LAMMPS (29 Oct 2020)
#### Settings required by ChIMES pairstyle ####

units           real
newton          on
atom_style      atomic
atom_modify     sort 0 0.0

#### Neighbor list setup ####

neighbor        1.0 bin
neigh_modify    delay 0 every 1 check yes

#### Test case: HN3 at 3000.0 K ####

read_data	data.in
Reading data file ...
  orthogonal box = (0.0000000 0.0000000 0.0000000) to (16.500000 16.500000 16.500000)
  1 by 1 by 1 MPI processor grid
  reading atoms ...
  512 atoms
  read_data CPU = 0.011 seconds
velocity	all create 3000.0 1111 loop all mom yes rot yes dist gaussian

#### Evaluate interactions with ChIMES ####

pair_style      chimesFF
pair_coeff      * * ../../../serial_interface/tests/force_fields/published_params.HN3.2+3+4b.Tersoff.special.offsets.txt

#### Specify dynamics and i/o ####

timestep        0.2

fix             1 all nvt temp 3000.0 3000.0 20.0
fix_modify      1 energy yes # Convert etotal to conserved quantity (add thermostat contributions)

thermo_style    custom step time ke pe temp press etotal
thermo_modify   line one format float %20.5f flush yes
thermo          1

run		2
Neighbor list info ...
  update every 1 steps, delay 0 steps, check yes
  max neighbors/atom: 2000, page size: 100000
  master list distance cutoff = 9
  ghost atom cutoff = 9
  binsize = 4.5, bins = 4 4 4
  1 neighbor lists, perpetual/occasional/extra = 1 0 0
  (1) pair chimesFF, perpetual
      attributes: full, newton on, ghost
      pair build: full/bin/ghost
      stencil: full/ghost/bin/3d
      bin: standard
Per MPI rank memory allocation (min/avg/max) = 7.701 | 7.701 | 7.701 Mbytes
Step Time KinEng PotEng Temp Press TotEng 
       0              0.00000           4569.58181         -76770.45621           3000.00000         264247.70270         -72200.87440 
       1              0.20000           4555.30932         -76755.99167           2990.62989         263669.42663         -72200.68236 
       2              0.40000           4545.51848         -76746.03156           2984.20206         262926.31509         -72200.51308 
Loop time of 20.7855 on 1 procs for 2 steps with 512 atoms

Performance: 0.002 ns/day, 14434.401 hours/ns, 0.096 timesteps/s
99.8% CPU use with 1 MPI tasks x no OpenMP threads

MPI task timing breakdown:
Section |  min time  |  avg time  |  max time  |%varavg| %total
---------------------------------------------------------------
Pair    | 20.785     | 20.785     | 20.785     |   0.0 |100.00
Neigh   | 0          | 0          | 0          |   0.0 |  0.00
Comm    | 0.00017166 | 0.00017166 | 0.00017166 |   0.0 |  0.00
Output  | 0.00010228 | 0.00010228 | 0.00010228 |   0.0 |  0.00
Modify  | 0.00016451 | 0.00016451 | 0.00016451 |   0.0 |  0.00
Other   |            | 0.0001283  |            |       |  0.00

Nlocal:        512.000 ave         512 max         512 min
Histogram: 1 0 0 0 0 0 0 0 0 0
Nghost:        4120.00 ave        4120 max        4120 min
Histogram: 1 0 0 0 0 0 0 0 0 0
Neighs:        0.00000 ave           0 max           0 min
Histogram: 1 0 0 0 0 0 0 0 0 0
FullNghs:     177730.0 ave      177730 max      177730 min
Histogram: 1 0 0 0 0 0 0 0 0 0

Total # of neighbors = 177730
Ave neighs/atom = 347.12891
Neighbor list builds = 0
Dangerous builds = 0


Total wall time: 0:00:32
