LAMMPS (29 Aug 2024 - Update 1)
##########################################
# USER-SPECIFIED VARIABLES
##########################################

variable tstep               equal  0.5                                        # timestep in fs
variable run_steps           equal  10000                                      # Number of steps to run
variable temperature         equal  3000                                       # Temperature (K)
variable pressure            equal  296077                                     # Target pressure (atm)

variable io_freq             equal  100                                        # Frequency of dumping trajectory (500 steps, 250 fs)

variable data_file           string /scratch/08034/tg873340/LAMMPS_test/lammps_data_files/diamond_3.21gcc_512atoms.data.in
variable param_file          string /scratch/08034/tg873340/LAMMPS_test/chimes_parameter_files/published_params.Carbon-2.0.Small.2+3+4b.Tersoff.txt

########################################
# GENERAL CONTROLS
########################################

units           real                          # Required for CHIMES pair style
newton          on                            # Required for CHIMES pair style
atom_style      atomic                        # Required for CHIMES pair style
atom_modify     sort 0 0.0                    # Prevent sorting (to maintain 3b parent/neighbor relationships)
atom_modify     map array                     # May improve efficiency

neighbor        0.5 bin
neigh_modify    delay 0 every 1 check yes

########################################
# INITIALIZATION CONTROLS
########################################

read_data       ${data_file}
read_data       /scratch/08034/tg873340/LAMMPS_test/lammps_data_files/diamond_3.21gcc_512atoms.data.in
Reading data file ...
  orthogonal box = (0 0 0) to (14.69002 14.69002 14.69002)
  1 by 1 by 1 MPI processor grid
  reading atoms ...
  512 atoms
  read_data CPU = 0.002 seconds
velocity        all create ${temperature} 1234 dist gaussian mom yes rot yes loop all  # Assign initial velocity (comment this line out when reading from a restart file)
velocity        all create 3000 1234 dist gaussian mom yes rot yes loop all  


########################################
# FORCE FIELD CONTROLS
########################################

pair_style      chimesFF
pair_coeff      * * ${param_file}
pair_coeff      * * /scratch/08034/tg873340/LAMMPS_test/chimes_parameter_files/published_params.Carbon-2.0.Small.2+3+4b.Tersoff.txt


########################################
# RESTART CONTROLS
########################################

restart         ${io_freq} a.restart b.restart	 # Write restart files
restart         100 a.restart b.restart	 

########################################
# RUN, DUMP, AND THERMO CONTROLS
########################################

##### Set the ensemble
variable temp_damp  equal  v_tstep*100.0	# Temperature damping coefficient
variable press_damp equal  v_tstep*1000.0	# Pressure damping coefficient
fix             1 all nvt temp ${temperature} ${temperature} ${temp_damp}
fix             1 all nvt temp 3000 ${temperature} ${temp_damp}
fix             1 all nvt temp 3000 3000 ${temp_damp}
fix             1 all nvt temp 3000 3000 50

##### Define thermo output
variable e_ensemble        equal f_1
variable e_conserve        equal ke+pe+v_e_ensemble
thermo_style    custom step time temp press density ke pe etotal v_e_ensemble v_e_conserve econserve
thermo_modify   line one format float %20.5f flush yes
thermo          ${io_freq}
thermo          100

##### Dump all atoms
#dump            dump_1 carbon ${io_freq} traj.lammpstrj id type element xu yu zu vx vy vz
#dump_modify     dump_1 sort id element C

##### Run the simulation

timestep        ${tstep}
timestep        0.5
run             ${run_steps} upto
run             10000 upto

CITE-CITE-CITE-CITE-CITE-CITE-CITE-CITE-CITE-CITE-CITE-CITE-CITE

Your simulation uses code contributions which should be cited:

- Type Label Framework: https://doi.org/10.1021/acs.jpcb.3c08419

@Article{Gissinger24,
 author = {Jacob R. Gissinger, Ilia Nikiforov, Yaser Afshar, Brendon Waters, Moon-ki Choi, Daniel S. Karls, Alexander Stukowski, Wonpil Im, Hendrik Heinz, Axel Kohlmeyer, and Ellad B. Tadmor},
 title = {Type Label Framework for Bonded Force Fields in LAMMPS},
 journal = {J. Phys. Chem. B},
 year =    2024,
 volume =  128,
 number =  13,
 pages =   {3282–-3297}
}

CITE-CITE-CITE-CITE-CITE-CITE-CITE-CITE-CITE-CITE-CITE-CITE-CITE

Generated 0 of 0 mixed pair_coeff terms from geometric mixing rule
Neighbor list info ...
  update: every = 1 steps, delay = 0 steps, check = yes
  max neighbors/atom: 2000, page size: 100000
  master list distance cutoff = 5.5
  ghost atom cutoff = 5.5
  binsize = 2.75, bins = 6 6 6
  1 neighbor lists, perpetual/occasional/extra = 1 0 0
  (1) pair chimesFF, perpetual
      attributes: full, newton on, ghost
      pair build: full/bin/ghost
      stencil: full/ghost/bin/3d
      bin: standard
Per MPI rank memory allocation (min/avg/max) = 3.8 | 3.8 | 3.8 Mbytes
   Step          Time           Temp          Press         Density         KinEng         PotEng         TotEng      v_e_ensemble   v_e_conserve    Econserve   
         0               0.00000           3000.00000        -243441.37095              3.22122           4569.58181        -106757.39823        -102187.81642              0.00000        -102187.81642        -102187.81642
       100              50.00000           1694.10198        -188253.57051              3.22122           2580.44586        -104287.24403        -101706.79817           -476.79294        -102183.59111        -102183.59111
       200             100.00000           1900.03145        -175403.14082              3.22122           2894.11639        -103778.49173        -100884.37534          -1298.22021        -102182.59555        -102182.59555
       300             150.00000           2033.40637        -151107.19647              3.22122           3097.27225        -103018.60065         -99921.32840          -2260.09833        -102181.42673        -102181.42673
       400             200.00000           2345.19283        -132436.24933              3.22122           3572.18349        -102439.55445         -98867.37096          -3313.33172        -102180.70268        -102180.70268
       500             250.00000           2624.00655         -99223.92049              3.22122           3996.87086        -101850.49235         -97853.62149          -4326.04768        -102179.66917        -102179.66917
       600             300.00000           3332.63377         -93377.64702              3.22122           5076.24755        -102081.77605         -97005.52850          -5174.55080        -102180.07930        -102180.07930
       700             350.00000           3295.99911         -74878.99056              3.22122           5020.44586        -101553.72582         -96533.27996          -5645.64339        -102178.92336        -102178.92336
       800             400.00000           3179.20901         -70229.70495              3.22122           4842.55188        -101461.89089         -96619.33900          -5559.59340        -102178.93241        -102178.93241
       900             450.00000           2995.37655         -90525.43650              3.22122           4562.53939        -101699.29825         -97136.75885          -5042.85368        -102179.61253        -102179.61253
      1000             500.00000           2899.32805         -99546.82547              3.22122           4416.23890        -101990.90621         -97574.66731          -4605.04622        -102179.71353        -102179.71353
      1100             550.00000           2843.49877        -108802.77489              3.22122           4331.20008        -101991.82446         -97660.62439          -4519.07147        -102179.69586        -102179.69586
      1200             600.00000           3002.01176         -98990.41106              3.22122           4572.64611        -101935.87400         -97363.22789          -4816.07350        -102179.30139        -102179.30139
      1300             650.00000           3152.86995         -91369.03018              3.22122           4802.43238        -101761.77586         -96959.34348          -5220.35201        -102179.69548        -102179.69548
      1400             700.00000           3296.65899         -97186.99464              3.22122           5021.45098        -101804.50346         -96783.05248          -5396.46369        -102179.51617        -102179.51617
      1500             750.00000           3079.21615         -92438.58862              3.22122           4690.24337        -101632.32129         -96942.07792          -5237.13759        -102179.21551        -102179.21551
      1600             800.00000           2893.41944        -103055.76328              3.22122           4407.23894        -101677.17341         -97269.93447          -4909.54263        -102179.47709        -102179.47709
      1700             850.00000           2945.45540         -98899.08354              3.22122           4486.49981        -101985.09910         -97498.59929          -4681.14172        -102179.74101        -102179.74101
      1800             900.00000           2967.04487        -103866.10042              3.22122           4519.38476        -102025.40960         -97506.02485          -4673.87713        -102179.90198        -102179.90198
      1900             950.00000           3078.63674         -96527.32068              3.22122           4689.36081        -101952.33122         -97262.97041          -4916.67717        -102179.64758        -102179.64758
      2000            1000.00000           3183.21916         -90887.63569              3.22122           4848.66013        -101813.18141         -96964.52128          -5214.86727        -102179.38855        -102179.38855
      2100            1050.00000           2891.74057         -73114.49185              3.22122           4404.68171        -101252.81177         -96848.13007          -5330.63391        -102178.76397        -102178.76397
      2200            1100.00000           3176.93586         -89880.00110              3.22122           4839.08944        -101834.10572         -96995.01629          -5184.44893        -102179.46522        -102179.46522
      2300            1150.00000           2764.33108         -86442.07307              3.22122           4210.61234        -101507.48979         -97296.87745          -4882.51177        -102179.38922        -102179.38922
      2400            1200.00000           3006.99197         -98774.70466              3.22122           4580.23193        -102036.26925         -97456.03731          -4723.72183        -102179.75915        -102179.75915
      2500            1250.00000           2981.22336        -100322.03273              3.22122           4540.98135        -101928.66670         -97387.68535          -4792.00401        -102179.68937        -102179.68937
      2600            1300.00000           3118.88711         -87005.25577              3.22122           4750.66993        -101866.56956         -97115.89963          -5063.65535        -102179.55498        -102179.55498
      2700            1350.00000           3088.16795         -81115.09112              3.22122           4703.87869        -101629.27863         -96925.39994          -5253.72603        -102179.12597        -102179.12597
      2800            1400.00000           3070.01703         -87776.04808              3.22122           4676.23132        -101623.13561         -96946.90428          -5232.29849        -102179.20277        -102179.20277
      2900            1450.00000           2935.27500         -91117.34544              3.22122           4470.99308        -101785.65926         -97314.66618          -4864.61123        -102179.27741        -102179.27741
      3000            1500.00000           2867.82474        -101580.17163              3.22122           4368.25326        -101885.79648         -97517.54322          -4661.98689        -102179.53011        -102179.53011
      3100            1550.00000           2902.73643         -92918.30195              3.22122           4421.43053        -101821.63614         -97400.20561          -4778.99155        -102179.19716        -102179.19716
      3200            1600.00000           3044.56261         -97327.46889              3.22122           4637.45931        -101829.23143         -97191.77212          -4987.54303        -102179.31515        -102179.31515
      3300            1650.00000           3033.07351         -95070.71542              3.22122           4619.95918        -101734.16066         -97114.20148          -5065.02269        -102179.22417        -102179.22417
      3400            1700.00000           3014.22390         -95648.06597              3.22122           4591.24756        -101723.01188         -97131.76432          -5047.53302        -102179.29733        -102179.29733
      3500            1750.00000           2854.01215         -85814.91070              3.22122           4347.21399        -101528.72576         -97181.51177          -4997.47795        -102178.98971        -102178.98971
      3600            1800.00000           3056.01506         -88907.00547              3.22122           4654.90361        -101932.97267         -97278.06906          -4901.30193        -102179.37099        -102179.37099
      3700            1850.00000           2838.70389         -98687.47995              3.22122           4323.89656        -101915.84135         -97591.94479          -4587.53157        -102179.47637        -102179.47637
      3800            1900.00000           2827.80055         -96217.84301              3.22122           4307.28865        -101952.21125         -97644.92260          -4534.56627        -102179.48887        -102179.48887
      3900            1950.00000           2983.53366        -102074.97882              3.22122           4544.50038        -101836.01828         -97291.51790          -4887.83502        -102179.35292        -102179.35292
      4000            2000.00000           2895.48452         -90142.27168              3.22122           4410.38447        -101485.26522         -97074.88076          -5103.73913        -102178.61989        -102178.61989
      4100            2050.00000           2944.03132         -87934.86647              3.22122           4484.33065        -101548.32509         -97063.99443          -5114.80076        -102178.79519        -102178.79519
      4200            2100.00000           2805.61895         -95755.14957              3.22122           4273.50176        -101466.86850         -97193.36674          -4985.34221        -102178.70896        -102178.70896
      4300            2150.00000           2937.99363         -98193.79495              3.22122           4475.13408        -102003.26560         -97528.13153          -4651.21182        -102179.34335        -102179.34335
      4400            2200.00000           2740.10241        -103109.86429              3.22122           4173.70737        -101864.46178         -97690.75441          -4488.47514        -102179.22955        -102179.22955
      4500            2250.00000           2929.13728         -91033.45521              3.22122           4461.64413        -101737.19737         -97275.55324          -4903.83787        -102179.39111        -102179.39111
      4600            2300.00000           3080.59253         -86646.77303              3.22122           4692.33986        -101711.15940         -97018.81954          -5160.22338        -102179.04292        -102179.04292
      4700            2350.00000           3075.66700         -88342.86412              3.22122           4684.83732        -101728.25029         -97043.41297          -5135.98114        -102179.39410        -102179.39410
      4800            2400.00000           2967.12521         -91216.23724              3.22122           4519.50712        -101747.21207         -97227.70495          -4951.59562        -102179.30057        -102179.30057
      4900            2450.00000           2964.67883         -97691.70902              3.22122           4515.78082        -101963.15096         -97447.37014          -4732.27176        -102179.64191        -102179.64191
      5000            2500.00000           3013.76529        -105711.85473              3.22122           4590.54901        -102097.11650         -97506.56749          -4673.21382        -102179.78131        -102179.78131
      5100            2550.00000           2967.34012         -89848.05775              3.22122           4519.83447        -101648.09349         -97128.25902          -5050.55789        -102178.81691        -102178.81691
      5200            2600.00000           2981.08123         -84620.33038              3.22122           4540.76485        -101419.22043         -96878.45558          -5300.23704        -102178.69262        -102178.69262
      5300            2650.00000           3023.03980         -80932.14887              3.22122           4604.67589        -101563.92062         -96959.24473          -5219.47949        -102178.72422        -102178.72422
      5400            2700.00000           3034.82076         -94330.79280              3.22122           4622.62057        -101876.26925         -97253.64868          -4925.89169        -102179.54037        -102179.54037
      5500            2750.00000           2797.91188         -94225.58306              3.22122           4261.76241        -101693.71146         -97431.94905          -4746.87597        -102178.82501        -102178.82501
      5600            2800.00000           3015.99628         -90818.44361              3.22122           4593.94725        -101961.05837         -97367.11112          -4812.46563        -102179.57675        -102179.57675
      5700            2850.00000           3042.31238         -93566.23353              3.22122           4634.03176        -101904.60784         -97270.57608          -4908.68285        -102179.25892        -102179.25892
      5800            2900.00000           3037.79331         -97826.81913              3.22122           4627.14835        -101811.98855         -97184.84020          -4994.43121        -102179.27141        -102179.27141
      5900            2950.00000           3042.14196         -81474.07276              3.22122           4633.77218        -101705.01230         -97071.24012          -5107.93733        -102179.17744        -102179.17744
      6000            3000.00000           2935.01808         -83901.56849              3.22122           4470.60174        -101393.32369         -96922.72195          -5255.79877        -102178.52072        -102178.52072
      6100            3050.00000           3112.89623         -78145.96043              3.22122           4741.54466        -101506.80981         -96765.26515          -5413.63947        -102178.90462        -102178.90462
      6200            3100.00000           3098.70467         -86032.63680              3.22122           4719.92815        -101633.88216         -96913.95400          -5265.12643        -102179.08043        -102179.08043
      6300            3150.00000           3010.86456         -93336.51123              3.22122           4586.13064        -101866.05676         -97279.92612          -4899.19200        -102179.11812        -102179.11812
      6400            3200.00000           2945.30525         -98680.47854              3.22122           4486.27109        -101870.28437         -97384.01329          -4795.22182        -102179.23510        -102179.23510
      6500            3250.00000           2892.84807         -90483.65404              3.22122           4406.36864        -101685.42390         -97279.05526          -4900.14924        -102179.20450        -102179.20450
      6600            3300.00000           3232.07196         -86758.85588              3.22122           4923.07241        -101805.93778         -96882.86537          -5296.63995        -102179.50532        -102179.50532
      6700            3350.00000           3238.14939         -80298.23055              3.22122           4932.32952        -101619.23515         -96686.90563          -5492.14582        -102179.05145        -102179.05145
      6800            3400.00000           3171.14078         -83647.35467              3.22122           4830.26240        -101692.07401         -96861.81161          -5317.23000        -102179.04161        -102179.04161
      6900            3450.00000           3032.29337         -94229.64351              3.22122           4618.77088        -101694.16676         -97075.39588          -5103.61910        -102179.01498        -102179.01498
      7000            3500.00000           2973.59505         -95970.87416              3.22122           4529.36194        -101780.10619         -97250.74424          -4928.42926        -102179.17350        -102179.17350
      7100            3550.00000           2878.37430         -93830.75765              3.22122           4384.32228        -101708.18200         -97323.85971          -4855.09752        -102178.95723        -102178.95723
      7200            3600.00000           2962.75323         -91864.38220              3.22122           4512.84776        -101778.93416         -97266.08640          -4913.03329        -102179.11969        -102179.11969
      7300            3650.00000           3065.44518         -81061.22164              3.22122           4669.26750        -101603.13615         -96933.86865          -5244.73514        -102178.60379        -102178.60379
      7400            3700.00000           2930.65145         -81080.67159              3.22122           4463.95051        -101260.47453         -96796.52402          -5381.87038        -102178.39441        -102178.39441
      7500            3750.00000           3098.01772         -86223.40826              3.22122           4718.88180        -101704.88617         -96986.00437          -5192.80516        -102178.80953        -102178.80953
      7600            3800.00000           2956.54478         -98149.66913              3.22122           4503.39107        -101844.66220         -97341.27113          -4837.86320        -102179.13432        -102179.13432
      7700            3850.00000           2848.89487         -93212.87297              3.22122           4339.41938        -101705.66486         -97366.24547          -4812.45269        -102178.69816        -102178.69816
      7800            3900.00000           3041.67040         -90006.79799              3.22122           4633.05391        -101882.45794         -97249.40403          -4929.56056        -102178.96459        -102178.96459
      7900            3950.00000           2944.00878         -86176.93355              3.22122           4484.29632        -101566.51999         -97082.22367          -5096.42634        -102178.65001        -102178.65001
      8000            4000.00000           3236.85643         -82025.65212              3.22122           4930.36008        -101713.23088         -96782.87080          -5395.93435        -102178.80514        -102178.80514
      8100            4050.00000           2996.75180         -70832.47953              3.22122           4564.63417        -100951.34728         -96386.71311          -5790.67609        -102177.38920        -102177.38920
      8200            4100.00000           3146.79282         -75290.77387              3.22122           4793.17575        -101426.83103         -96633.65528          -5544.47959        -102178.13487        -102178.13487
      8300            4150.00000           3061.31706         -88091.80447              3.22122           4662.97957        -101585.70256         -96922.72299          -5256.23827        -102178.96125        -102178.96125
      8400            4200.00000           3034.92713         -91455.07916              3.22122           4622.78260        -101740.83220         -97118.04960          -5060.87244        -102178.92204        -102178.92204
      8500            4250.00000           3090.57872         -96697.42799              3.22122           4707.55077        -102009.61128         -97302.06051          -4877.52360        -102179.58411        -102179.58411
      8600            4300.00000           2953.22880         -99963.11123              3.22122           4498.34020        -101897.69545         -97399.35525          -4779.95939        -102179.31464        -102179.31464
      8700            4350.00000           2986.18988         -98138.88755              3.22122           4548.54632        -101823.74443         -97275.19810          -4904.02061        -102179.21871        -102179.21871
      8800            4400.00000           3081.41885         -91063.19267              3.22122           4693.59851        -101589.36657         -96895.76807          -5282.90193        -102178.66999        -102178.66999
      8900            4450.00000           2937.90036         -80804.28173              3.22122           4474.99201        -101289.42384         -96814.43183          -5363.69314        -102178.12497        -102178.12497
      9000            4500.00000           3167.00770         -97199.54496              3.22122           4823.96692        -101882.57918         -97058.61226          -5120.54027        -102179.15253        -102179.15253
      9100            4550.00000           3130.33379        -102591.92302              3.22122           4768.10544        -102131.75064         -97363.64519          -4815.84674        -102179.49193        -102179.49193
      9200            4600.00000           3077.19285         -96057.23356              3.22122           4687.16149        -102036.71858         -97349.55709          -4829.64976        -102179.20685        -102179.20685
      9300            4650.00000           3047.99403         -95962.50574              3.22122           4642.68602        -101862.49241         -97219.80640          -4959.45397        -102179.26036        -102179.26036
      9400            4700.00000           3153.04900         -86655.03798              3.22122           4802.70512        -101883.03382         -97080.32871          -5098.87189        -102179.20060        -102179.20060
      9500            4750.00000           2865.62573         -79018.39781              3.22122           4364.90373        -101266.61067         -96901.70694          -5276.65738        -102178.36432        -102178.36432
      9600            4800.00000           3297.02035         -77069.10084              3.22122           5022.00140        -101554.16001         -96532.15861          -5646.40997        -102178.56859        -102178.56859
      9700            4850.00000           3086.90901         -77879.27387              3.22122           4701.96108        -101371.85459         -96669.89351          -5508.80354        -102178.69705        -102178.69705
      9800            4900.00000           3082.82109         -91233.48596              3.22122           4695.73439        -101753.29572         -97057.56132          -5121.27736        -102178.83868        -102178.83868
      9900            4950.00000           3079.57640         -95684.58486              3.22122           4690.79210        -101887.27218         -97196.48008          -4982.76112        -102179.24120        -102179.24120
     10000            5000.00000           2926.31483         -91210.08091              3.22122           4457.34500        -101727.47245         -97270.12744          -4909.02740        -102179.15485        -102179.15485
Loop time of 7997.55 on 1 procs for 10000 steps with 512 atoms

Performance: 0.054 ns/day, 444.308 hours/ns, 1.250 timesteps/s, 640.196 atom-step/s
99.6% CPU use with 1 MPI tasks x no OpenMP threads

MPI task timing breakdown:
Section |  min time  |  avg time  |  max time  |%varavg| %total
---------------------------------------------------------------
Pair    | 7987.6     | 7987.6     | 7987.6     |   0.0 | 99.88
Neigh   | 9.2459     | 9.2459     | 9.2459     |   0.0 |  0.12
Comm    | 0.17268    | 0.17268    | 0.17268    |   0.0 |  0.00
Output  | 0.40162    | 0.40162    | 0.40162    |   0.0 |  0.01
Modify  | 0.091744   | 0.091744   | 0.091744   |   0.0 |  0.00
Other   |            | 0.04471    |            |       |  0.00

Nlocal:            512 ave         512 max         512 min
Histogram: 1 0 0 0 0 0 0 0 0 0
Nghost:           2193 ave        2193 max        2193 min
Histogram: 1 0 0 0 0 0 0 0 0 0
Neighs:              0 ave           0 max           0 min
Histogram: 1 0 0 0 0 0 0 0 0 0
FullNghs:        58506 ave       58506 max       58506 min
Histogram: 1 0 0 0 0 0 0 0 0 0

Total # of neighbors = 58506
Ave neighs/atom = 114.26953
Neighbor list builds = 1107
Dangerous builds = 0
Total wall time: 2:13:18
