LAMMPS (29 Oct 2020)
#############################################
# Specify high-level simulation style
##############################################

units        real                      # Specify units to use
newton       on
atom_style   atomic                      # Only store info on atom coords and type - no bonded info
atom_modify  sort 0 0.0                # Maintain atom ordering when printing information
atom_modify  map array                 # Also needed to maintain ordering
neighbor     2.0 bin                   # Specify neighborlist parameters
neigh_modify delay 0 every 1 check yes # More neighborlist parameters

boundary p p p
read_data    ./data.in
Reading data file ...
  triclinic box = (0.0000000 0.0000000 0.0000000) to (11.680000 11.680000 11.680000) with tilt (0.0000000 0.0000000 0.0000000)
  1 by 1 by 1 MPI processor grid
  reading atoms ...
  200 atoms
  read_data CPU = 0.001 seconds
pair_style chimesFF
pair_coeff  * * ./params.txt

##############################################
# Specify the requested output
##############################################

dump            1 all custom 1 traj.lammpstrj id element xu yu zu fx fy fz

thermo_style    custom pe pxx pyy pzz pxy pxz pyz press
thermo          0

run 0
WARNING: No fixes defined, atoms won't move (../verlet.cpp:54)
Neighbor list info ...
  update every 1 steps, delay 0 steps, check yes
  max neighbors/atom: 2000, page size: 100000
  master list distance cutoff = 5.15
  ghost atom cutoff = 5.15
  binsize = 2.575, bins = 5 5 5
  1 neighbor lists, perpetual/occasional/extra = 1 0 0
  (1) pair chimesFF, perpetual
      attributes: full, newton on, ghost
      pair build: full/bin/ghost
      stencil: full/ghost/bin/3d
      bin: standard
Per MPI rank memory allocation (min/avg/max) = 4.245 | 4.245 | 4.245 Mbytes
PotEng Pxx Pyy Pzz Pxy Pxz Pyz Press 
  -7701.3061    94611.219     86594.67    88985.285   -30381.731    32539.754   -19721.689    90063.725 
Loop time of 2.14577e-06 on 1 procs for 0 steps with 200 atoms

139.8% CPU use with 1 MPI tasks x no OpenMP threads

MPI task timing breakdown:
Section |  min time  |  avg time  |  max time  |%varavg| %total
---------------------------------------------------------------
Pair    | 0          | 0          | 0          |   0.0 |  0.00
Neigh   | 0          | 0          | 0          |   0.0 |  0.00
Comm    | 0          | 0          | 0          |   0.0 |  0.00
Output  | 0          | 0          | 0          |   0.0 |  0.00
Modify  | 0          | 0          | 0          |   0.0 |  0.00
Other   |            | 2.146e-06  |            |       |100.00

Nlocal:        200.000 ave         200 max         200 min
Histogram: 1 0 0 0 0 0 0 0 0 0
Nghost:        1128.00 ave        1128 max        1128 min
Histogram: 1 0 0 0 0 0 0 0 0 0
Neighs:        0.00000 ave           0 max           0 min
Histogram: 1 0 0 0 0 0 0 0 0 0
FullNghs:      14240.0 ave       14240 max       14240 min
Histogram: 1 0 0 0 0 0 0 0 0 0

Total # of neighbors = 14240
Ave neighs/atom = 71.200000
Neighbor list builds = 0
Dangerous builds = 0
Total wall time: 0:00:00
