LAMMPS data file generated from POSCAR

216 atoms
2 atom types

0.0 13.0619797427 xlo xhi
0.0 13.0619797427 ylo yhi
0.0 13.0619797427 zlo zhi
0.0 0.0 0.0 xy xz yz

Masses

1 12.0107
2 28.0855

Atoms

1 1 8.707986 8.707986 8.707986
2 1 8.707986 10.884983 10.884983
3 1 10.884983 8.707986 10.884983
4 1 10.884983 10.884983 8.707986
5 1 8.707986 8.707986 13.061980
6 1 8.707986 10.884983 2.176997
7 1 10.884983 8.707986 2.176997
8 1 10.884983 10.884983 13.061980
9 1 8.707986 8.707986 4.353993
10 1 8.707986 10.884983 6.530990
11 1 10.884983 8.707986 6.530990
12 1 10.884983 10.884983 4.353993
13 1 8.707986 0.000000 8.707986
14 1 8.707986 2.176997 10.884983
15 1 10.884983 0.000000 10.884983
16 1 10.884983 2.176997 8.707986
17 1 8.707986 0.000000 13.061980
18 1 8.707986 2.176997 2.176997
19 1 10.884983 0.000000 2.176997
20 1 10.884983 2.176997 0.000000
21 1 8.707986 0.000000 4.353993
22 1 8.707986 2.176997 6.530990
23 1 10.884983 0.000000 6.530990
24 1 10.884983 2.176997 4.353993
25 1 8.707986 4.353993 8.707986
26 1 8.707986 6.530990 10.884983
27 1 10.884983 4.353993 10.884983
28 1 10.884983 6.530990 8.707986
29 1 8.707986 4.353993 0.000000
30 1 8.707986 6.530990 2.176997
31 1 10.884983 4.353993 2.176997
32 1 10.884983 6.530990 0.000000
33 1 8.707986 4.353993 4.353993
34 1 8.707986 6.530990 6.530990
35 1 10.884983 4.353993 6.530990
36 1 10.884983 6.530990 4.353993
37 1 13.061980 8.707986 8.707986
38 1 13.061980 10.884983 10.884983
39 1 2.176997 8.707986 10.884983
40 1 2.176997 10.884983 8.707986
41 1 13.061980 8.707986 13.061980
42 1 13.061980 10.884983 2.176997
43 1 2.176997 8.707986 2.176997
44 1 2.176997 10.884983 0.000000
45 1 13.061980 8.707986 4.353993
46 1 13.061980 10.884983 6.530990
47 1 2.176997 8.707986 6.530990
48 1 2.176997 10.884983 4.353993
49 1 0.000000 0.000000 8.707986
50 1 -0.000000 2.176997 10.884983
51 1 2.176997 0.000000 10.884983
52 1 2.176997 2.176997 8.707986
53 1 0.000000 0.000000 0.000000
54 1 -0.000000 2.176997 2.176997
55 1 2.176997 0.000000 2.176997
56 1 2.176997 2.176997 0.000000
57 1 0.000000 0.000000 4.353993
58 1 -0.000000 2.176997 6.530990
59 1 2.176997 0.000000 6.530990
60 1 2.176997 2.176997 4.353993
61 1 -0.000000 4.353993 8.707986
62 1 -0.000000 6.530990 10.884983
63 1 2.176997 4.353993 10.884983
64 1 2.176997 6.530990 8.707986
65 1 -0.000000 4.353993 0.000000
66 1 -0.000000 6.530990 2.176997
67 1 2.176997 4.353993 2.176997
68 1 2.176997 6.530990 0.000000
69 1 -0.000000 4.353993 4.353993
70 1 -0.000000 6.530990 6.530990
71 1 2.176997 4.353993 6.530990
72 1 2.176997 6.530990 4.353993
73 1 4.353993 8.707986 8.707986
74 1 4.353993 10.884983 10.884983
75 1 6.530990 8.707986 10.884983
76 1 6.530990 10.884983 8.707986
77 1 4.353993 8.707986 0.000000
78 1 4.353993 10.884983 2.176997
79 1 6.530990 8.707986 2.176997
80 1 6.530990 10.884983 0.000000
81 1 4.353993 8.707986 4.353993
82 1 4.353993 10.884983 6.530990
83 1 6.530990 8.707986 6.530990
84 1 6.530990 10.884983 4.353993
85 1 4.353993 0.000000 8.707986
86 1 4.353993 2.176997 10.884983
87 1 6.530990 0.000000 10.884983
88 1 6.530990 2.176997 8.707986
89 1 4.353993 0.000000 0.000000
90 1 4.353993 2.176997 2.176997
91 1 6.530990 0.000000 2.176997
92 1 6.530990 2.176997 0.000000
93 1 4.353993 0.000000 4.353993
94 1 4.353993 2.176997 6.530990
95 1 6.530990 0.000000 6.530990
96 1 6.530990 2.176997 4.353993
97 1 4.353993 4.353993 8.707986
98 1 4.353993 6.530990 10.884983
99 1 6.530990 4.353993 10.884983
100 1 6.530990 6.530990 8.707986
101 1 4.353993 4.353993 0.000000
102 1 4.353993 6.530990 2.176997
103 1 6.530990 4.353993 2.176997
104 1 6.530990 6.530990 0.000000
105 1 4.353993 4.353993 4.353993
106 1 4.353993 6.530990 6.530990
107 1 6.530990 4.353993 6.530990
108 1 6.530990 6.530990 4.353993
109 1 11.973481 9.796485 11.973481
110 1 11.973481 11.973481 9.796485
111 1 9.796485 9.796485 9.796485
112 1 9.796485 11.973481 11.973481
113 1 11.973481 9.796485 3.265495
114 1 11.973481 11.973481 1.088498
115 1 9.796485 9.796485 1.088498
116 1 9.796485 11.973481 3.265495
117 1 11.973481 9.796485 7.619488
118 1 11.973481 11.973481 5.442492
119 1 9.796485 9.796485 5.442492
120 1 9.796485 11.973481 7.619488
121 1 11.973481 1.088498 11.973481
122 1 11.973481 3.265495 9.796485
123 1 9.796485 1.088498 9.796485
124 1 9.796485 3.265495 11.973481
125 1 11.973481 1.088498 3.265495
126 1 11.973481 3.265495 1.088498
127 1 9.796485 1.088498 1.088498
128 1 9.796485 3.265495 3.265495
129 1 11.973481 1.088498 7.619488
130 1 11.973481 3.265495 5.442492
131 1 9.796485 1.088498 5.442492
132 1 9.796485 3.265495 7.619488
133 1 11.973481 5.442492 11.973481
134 1 11.973481 7.619488 9.796485
135 1 9.796485 5.442492 9.796485
136 1 9.796485 7.619488 11.973481
137 1 11.973481 5.442492 3.265495
138 1 11.973481 7.619488 1.088498
139 1 9.796485 5.442492 1.088498
140 1 9.796485 7.619488 3.265495
141 1 11.973481 5.442492 7.619488
142 1 11.973481 7.619488 5.442492
143 1 9.796485 5.442492 5.442492
144 1 9.796485 7.619488 7.619488
145 1 3.265495 9.796485 11.973481
146 1 3.265495 11.973481 9.796485
147 1 1.088498 9.796485 9.796485
148 1 1.088498 11.973481 11.973481
149 1 3.265495 9.796485 3.265495
150 1 3.265495 11.973481 1.088498
151 1 1.088498 9.796485 1.088498
152 1 1.088498 11.973481 3.265495
153 1 3.265495 9.796485 7.619488
154 1 3.265495 11.973481 5.442492
155 1 1.088498 9.796485 5.442492
156 1 1.088498 11.973481 7.619488
157 1 3.265495 1.088498 11.973481
158 1 3.265495 3.265495 9.796485
159 1 1.088498 1.088498 9.796485
160 1 1.088498 3.265495 11.973481
161 1 3.265495 1.088498 3.265495
162 1 3.265495 3.265495 1.088498
163 1 1.088498 1.088498 1.088498
164 1 1.088498 3.265495 3.265495
165 1 3.265495 1.088498 7.619488
166 1 3.265495 3.265495 5.442492
167 1 1.088498 1.088498 5.442492
168 1 1.088498 3.265495 7.619488
169 1 3.265495 5.442492 11.973481
170 1 3.265495 7.619488 9.796485
171 1 1.088498 5.442492 9.796485
172 1 1.088498 7.619488 11.973481
173 1 3.265495 5.442492 3.265495
174 1 3.265495 7.619488 1.088498
175 1 1.088498 5.442492 1.088498
176 1 1.088498 7.619488 3.265495
177 1 3.265495 5.442492 7.619488
178 1 3.265495 7.619488 5.442492
179 1 1.088498 5.442492 5.442492
180 1 1.088498 7.619488 7.619488
181 1 7.619488 9.796485 11.973481
182 1 7.619488 11.973481 9.796485
183 1 5.442492 9.796485 9.796485
184 1 5.442492 11.973481 11.973481
185 1 7.619488 9.796485 3.265495
186 1 7.619488 11.973481 1.088498
187 1 5.442492 9.796485 1.088498
188 1 5.442492 11.973481 3.265495
189 1 7.619488 9.796485 7.619488
190 1 7.619488 11.973481 5.442492
191 1 5.442492 9.796485 5.442492
192 1 5.442492 11.973481 7.619488
193 1 7.619488 1.088498 11.973481
194 1 7.619488 3.265495 9.796485
195 1 5.442492 1.088498 9.796485
196 1 5.442492 3.265495 11.973481
197 1 7.619488 1.088498 3.265495
198 1 7.619488 3.265495 1.088498
199 1 5.442492 1.088498 1.088498
200 1 5.442492 3.265495 3.265495
201 1 7.619488 1.088498 7.619488
202 1 7.619488 3.265495 5.442492
203 1 5.442492 1.088498 5.442492
204 1 5.442492 3.265495 7.619488
205 1 7.619488 5.442492 11.973481
206 1 7.619488 7.619488 9.796485
207 1 5.442492 5.442492 9.796485
208 1 5.442492 7.619488 11.973481
209 1 7.619488 5.442492 3.265495
210 1 7.619488 7.619488 1.088498
211 1 5.442492 5.442492 1.088498
212 1 5.442492 7.619488 3.265495
213 1 7.619488 5.442492 7.619488
214 1 7.619488 7.619488 5.442492
215 1 5.442492 5.442492 5.442492
216 2 5.442492 7.619488 7.619488
