LAMMPS (29 Oct 2020)
#############################################
# Specify high-level simulation style
##############################################

units        real                      # Specify units to use
newton       on
atom_style   atomic                      # Only store info on atom coords and type - no bonded info
atom_modify  sort 0 0.0                # Maintain atom ordering when printing information
atom_modify  map array                 # Also needed to maintain ordering
neighbor     1.0 bin                   # Specify neighborlist parameters
neigh_modify delay 0 every 1 check yes # More neighborlist parameters

boundary p p p
box tilt large
read_data    ./final_structure.data
Reading data file ...
  triclinic box = (0.0000000 0.0000000 0.0000000) to (13.061980 13.061980 13.061980) with tilt (0.0000000 0.0000000 0.0000000)
  4 by 2 by 7 MPI processor grid
  reading atoms ...
  216 atoms
  reading velocities ...
  216 velocities
  read_data CPU = 0.005 seconds
pair_style hybrid/overlay chimesFF fingerprint 1 for_fitting momb 12.0 0.75 20.0
pair_coeff  * * chimesFF params.txt.reduced
