LAMMPS (29 Oct 2020)
Reading data file ...
  triclinic box = (0.0000000 0.0000000 0.0000000) to (13.061980 13.061980 13.061980) with tilt (0.0000000 0.0000000 0.0000000)
  4 by 2 by 7 MPI processor grid
  reading atoms ...
  216 atoms
  reading velocities ...
  216 velocities
  read_data CPU = 0.005 seconds
chimesFF: 
chimesFF: 01000011011010001001001010011010100010101010011 0100010101101110110011101101001011011101100101  
chimesFF: 
chimesFF:       _____  _      _____  __  __  ______   _____   ______                _                      
chimesFF:      / ____|| |    |_   _||  \/  ||  ____| / ____| |  ____|              (_)                    
chimesFF:     | |     | |__    | |  | \  / || |__   | (___   | |__    _ __    __ _  _  _ __    ___        
chimesFF:     | |     | '_ \   | |  | |\/| ||  __|   \___ \  |  __|  | '_ \  / _` || || '_ \  / _ \ 
chimesFF:     | |____ | | | | _| |_ | |  | || |____  ____) | | |____ | | | || (_| || || | | ||  __/        
chimesFF:      \_____||_| |_||_____||_|  |_||______||_____/  |______||_| |_| \__, ||_||_| |_| \___|     
chimesFF:                                                                     __/ |                        
chimesFF:                                                                    |___/                         
chimesFF: 
chimesFF:                      Copyright (C) 2020 R.K. Lindsey, L.E. Fried, N. Goldman                     
chimesFF: 
chimesFF: 01000011011010001001001010011010100010101010011 0100010101101110110011101101001011011101100101   
chimesFF: 

************************* WARNING (pair_style chimesFF) ************************
Assuming n-body interactions have longer cutoffs than all (n+1)-body interactions
************************* WARNING (pair_style chimesFF) ************************

chimesFF: Reading parameters from file: params.txt.reduced
chimesFF: Using respective 2, 3, and 4-body orders of: 20 11 0
chimesFF: Note: Ignoring polynomial domain; assuming [-1,1]
chimesFF: Will consider 1 atom types:
chimesFF: 	0 Si
chimesFF: Will consider 1 atom pair types
chimesFF: Detected version 2 pair specification (no S_DELTA)
chimesFF: 	0 Si Si
chimesFF: Read the following pair type information:
chimesFF: 	Si Si r_cut_in: 1.55000 r_cut_out: 6.00000 MORSE 2.33000
chimesFF: Will use cutoff style TERSOFF
 0.75000
chimesFF: Will use single atom energy offsets: 
chimesFF: 	1 Si -185.47609
chimesFF: Read 2B parameters for pair: 0 Si Si
chimesFF: 	0 17.35299
chimesFF: 	1 -0.38244
chimesFF: 	2 1.71021
chimesFF: 	3 -21.21285
chimesFF: 	4 -9.69979
chimesFF: 	5 -15.49669
chimesFF: 	6 1.79703
chimesFF: 	7 -3.50788
chimesFF: 	8 1.76475
chimesFF: 	9 -2.64400
chimesFF: 	10 2.65444
chimesFF: 	11 -1.72243
chimesFF: 	12 1.46824
chimesFF: 	13 -0.79666
chimesFF: 	14 0.84483
chimesFF: 	15 -0.26161
chimesFF: 	16 0.33015
chimesFF: 	17 0.08017
chimesFF: 	18 0.00000
chimesFF: 	19 0.09510
chimesFF: Built the following 2-body pair "slow" map:
chimesFF: 	0 SiSi(i: 0)
chimesFF: Built the following 2-body pair "fast" map:
chimesFF: 	SiSi: 0 0
chimesFF: Read 3B parameters for triplet: 0 Si Si Si
chimesFF: 	0 1 1 0.00000
chimesFF: 	1 0 1 0.00000
chimesFF: 	1 1 0 0.00000
chimesFF: 	0 1 2 0.00000
chimesFF: 	1 0 2 0.00000
chimesFF: 	0 2 1 0.00000
chimesFF: 	2 0 1 0.00000
chimesFF: 	1 2 0 0.00000
chimesFF: 	2 1 0 0.00000
chimesFF: 	0 1 3 -0.09924
chimesFF: 	1 0 3 -0.09924
chimesFF: 	0 3 1 -0.09924
chimesFF: 	3 0 1 -0.09924
chimesFF: 	1 3 0 -0.09924
chimesFF: 	3 1 0 -0.09924
chimesFF: 	0 1 4 0.00000
chimesFF: 	1 0 4 0.00000
chimesFF: 	0 4 1 0.00000
chimesFF: 	4 0 1 0.00000
chimesFF: 	1 4 0 0.00000
chimesFF: 	4 1 0 0.00000
chimesFF: 	0 1 5 -0.81533
chimesFF: 	1 0 5 -0.81533
chimesFF: 	0 5 1 -0.81533
chimesFF: 	5 0 1 -0.81533
chimesFF: 	1 5 0 -0.81533
chimesFF: 	5 1 0 -0.81533
chimesFF: 	0 1 6 -1.48623
chimesFF: 	1 0 6 -1.48623
chimesFF: 	0 6 1 -1.48623
chimesFF: 	6 0 1 -1.48623
chimesFF: 	1 6 0 -1.48623
chimesFF: 	6 1 0 -1.48623
chimesFF: 	0 1 7 0.00000
chimesFF: 	1 0 7 0.00000
chimesFF: 	0 7 1 0.00000
chimesFF: 	7 0 1 0.00000
chimesFF: 	1 7 0 0.00000
chimesFF: 	7 1 0 0.00000
chimesFF: 	0 1 8 0.94951
chimesFF: 	1 0 8 0.94951
chimesFF: 	0 8 1 0.94951
chimesFF: 	8 0 1 0.94951
chimesFF: 	1 8 0 0.94951
chimesFF: 	8 1 0 0.94951
chimesFF: 	0 1 9 -1.29124
chimesFF: 	1 0 9 -1.29124
chimesFF: 	0 9 1 -1.29124
chimesFF: 	9 0 1 -1.29124
chimesFF: 	1 9 0 -1.29124
chimesFF: 	9 1 0 -1.29124
chimesFF: 	0 1 10 0.00000
chimesFF: 	1 0 10 0.00000
chimesFF: 	0 10 1 0.00000
chimesFF: 	10 0 1 0.00000
chimesFF: 	1 10 0 0.00000
chimesFF: 	10 1 0 0.00000
chimesFF: 	0 2 2 1.36649
chimesFF: 	2 0 2 1.36649
chimesFF: 	2 2 0 1.36649
chimesFF: 	0 2 3 -2.30801
chimesFF: 	2 0 3 -2.30801
chimesFF: 	0 3 2 -2.30801
chimesFF: 	3 0 2 -2.30801
chimesFF: 	2 3 0 -2.30801
chimesFF: 	3 2 0 -2.30801
chimesFF: 	0 2 4 -0.23721
chimesFF: 	2 0 4 -0.23721
chimesFF: 	0 4 2 -0.23721
chimesFF: 	4 0 2 -0.23721
chimesFF: 	2 4 0 -0.23721
chimesFF: 	4 2 0 -0.23721
chimesFF: 	0 2 5 0.00000
chimesFF: 	2 0 5 0.00000
chimesFF: 	0 5 2 0.00000
chimesFF: 	5 0 2 0.00000
chimesFF: 	2 5 0 0.00000
chimesFF: 	5 2 0 0.00000
chimesFF: 	0 2 6 0.00000
chimesFF: 	2 0 6 0.00000
chimesFF: 	0 6 2 0.00000
chimesFF: 	6 0 2 0.00000
chimesFF: 	2 6 0 0.00000
chimesFF: 	6 2 0 0.00000
chimesFF: 	0 2 7 0.00000
chimesFF: 	2 0 7 0.00000
chimesFF: 	0 7 2 0.00000
chimesFF: 	7 0 2 0.00000
chimesFF: 	2 7 0 0.00000
chimesFF: 	7 2 0 0.00000
chimesFF: 	0 2 8 0.55319
chimesFF: 	2 0 8 0.55319
chimesFF: 	0 8 2 0.55319
chimesFF: 	8 0 2 0.55319
chimesFF: 	2 8 0 0.55319
chimesFF: 	8 2 0 0.55319
chimesFF: 	0 2 9 -0.40044
chimesFF: 	2 0 9 -0.40044
chimesFF: 	0 9 2 -0.40044
chimesFF: 	9 0 2 -0.40044
chimesFF: 	2 9 0 -0.40044
chimesFF: 	9 2 0 -0.40044
chimesFF: 	0 2 10 0.00000
chimesFF: 	2 0 10 0.00000
chimesFF: 	0 10 2 0.00000
chimesFF: 	10 0 2 0.00000
chimesFF: 	2 10 0 0.00000
chimesFF: 	10 2 0 0.00000
chimesFF: 	0 3 3 8.51879
chimesFF: 	3 0 3 8.51879
chimesFF: 	3 3 0 8.51879
chimesFF: 	0 3 4 0.66125
chimesFF: 	3 0 4 0.66125
chimesFF: 	0 4 3 0.66125
chimesFF: 	4 0 3 0.66125
chimesFF: 	3 4 0 0.66125
chimesFF: 	4 3 0 0.66125
chimesFF: 	0 3 5 0.00000
chimesFF: 	3 0 5 0.00000
chimesFF: 	0 5 3 0.00000
chimesFF: 	5 0 3 0.00000
chimesFF: 	3 5 0 0.00000
chimesFF: 	5 3 0 0.00000
chimesFF: 	0 3 6 -0.64431
chimesFF: 	3 0 6 -0.64431
chimesFF: 	0 6 3 -0.64431
chimesFF: 	6 0 3 -0.64431
chimesFF: 	3 6 0 -0.64431
chimesFF: 	6 3 0 -0.64431
chimesFF: 	0 3 7 0.00000
chimesFF: 	3 0 7 0.00000
chimesFF: 	0 7 3 0.00000
chimesFF: 	7 0 3 0.00000
chimesFF: 	3 7 0 0.00000
chimesFF: 	7 3 0 0.00000
chimesFF: 	0 3 8 -0.27653
chimesFF: 	3 0 8 -0.27653
chimesFF: 	0 8 3 -0.27653
chimesFF: 	8 0 3 -0.27653
chimesFF: 	3 8 0 -0.27653
chimesFF: 	8 3 0 -0.27653
chimesFF: 	0 3 9 0.53673
chimesFF: 	3 0 9 0.53673
chimesFF: 	0 9 3 0.53673
chimesFF: 	9 0 3 0.53673
chimesFF: 	3 9 0 0.53673
chimesFF: 	9 3 0 0.53673
chimesFF: 	0 3 10 0.00000
chimesFF: 	3 0 10 0.00000
chimesFF: 	0 10 3 0.00000
chimesFF: 	10 0 3 0.00000
chimesFF: 	3 10 0 0.00000
chimesFF: 	10 3 0 0.00000
chimesFF: 	0 4 4 0.00000
chimesFF: 	4 0 4 0.00000
chimesFF: 	4 4 0 0.00000
chimesFF: 	0 4 5 0.00000
chimesFF: 	4 0 5 0.00000
chimesFF: 	0 5 4 0.00000
chimesFF: 	5 0 4 0.00000
chimesFF: 	4 5 0 0.00000
chimesFF: 	5 4 0 0.00000
chimesFF: 	0 4 6 3.17172
chimesFF: 	4 0 6 3.17172
chimesFF: 	0 6 4 3.17172
chimesFF: 	6 0 4 3.17172
chimesFF: 	4 6 0 3.17172
chimesFF: 	6 4 0 3.17172
chimesFF: 	0 4 7 0.00000
chimesFF: 	4 0 7 0.00000
chimesFF: 	0 7 4 0.00000
chimesFF: 	7 0 4 0.00000
chimesFF: 	4 7 0 0.00000
chimesFF: 	7 4 0 0.00000
chimesFF: 	0 4 8 0.00000
chimesFF: 	4 0 8 0.00000
chimesFF: 	0 8 4 0.00000
chimesFF: 	8 0 4 0.00000
chimesFF: 	4 8 0 0.00000
chimesFF: 	8 4 0 0.00000
chimesFF: 	0 4 9 0.00000
chimesFF: 	4 0 9 0.00000
chimesFF: 	0 9 4 0.00000
chimesFF: 	9 0 4 0.00000
chimesFF: 	4 9 0 0.00000
chimesFF: 	9 4 0 0.00000
chimesFF: 	0 4 10 0.37211
chimesFF: 	4 0 10 0.37211
chimesFF: 	0 10 4 0.37211
chimesFF: 	10 0 4 0.37211
chimesFF: 	4 10 0 0.37211
chimesFF: 	10 4 0 0.37211
chimesFF: 	0 5 5 -5.30137
chimesFF: 	5 0 5 -5.30137
chimesFF: 	5 5 0 -5.30137
chimesFF: 	0 5 6 0.00000
chimesFF: 	5 0 6 0.00000
chimesFF: 	0 6 5 0.00000
chimesFF: 	6 0 5 0.00000
chimesFF: 	5 6 0 0.00000
chimesFF: 	6 5 0 0.00000
chimesFF: 	0 5 7 0.00000
chimesFF: 	5 0 7 0.00000
chimesFF: 	0 7 5 0.00000
chimesFF: 	7 0 5 0.00000
chimesFF: 	5 7 0 0.00000
chimesFF: 	7 5 0 0.00000
chimesFF: 	0 5 8 -1.36110
chimesFF: 	5 0 8 -1.36110
chimesFF: 	0 8 5 -1.36110
chimesFF: 	8 0 5 -1.36110
chimesFF: 	5 8 0 -1.36110
chimesFF: 	8 5 0 -1.36110
chimesFF: 	0 5 9 0.00000
chimesFF: 	5 0 9 0.00000
chimesFF: 	0 9 5 0.00000
chimesFF: 	9 0 5 0.00000
chimesFF: 	5 9 0 0.00000
chimesFF: 	9 5 0 0.00000
chimesFF: 	0 5 10 -0.13059
chimesFF: 	5 0 10 -0.13059
chimesFF: 	0 10 5 -0.13059
chimesFF: 	10 0 5 -0.13059
chimesFF: 	5 10 0 -0.13059
chimesFF: 	10 5 0 -0.13059
chimesFF: 	0 6 6 -1.81442
chimesFF: 	6 0 6 -1.81442
chimesFF: 	6 6 0 -1.81442
chimesFF: 	0 6 7 0.00000
chimesFF: 	6 0 7 0.00000
chimesFF: 	0 7 6 0.00000
chimesFF: 	7 0 6 0.00000
chimesFF: 	6 7 0 0.00000
chimesFF: 	7 6 0 0.00000
chimesFF: 	0 6 8 0.00000
chimesFF: 	6 0 8 0.00000
chimesFF: 	0 8 6 0.00000
chimesFF: 	8 0 6 0.00000
chimesFF: 	6 8 0 0.00000
chimesFF: 	8 6 0 0.00000
chimesFF: 	0 6 9 0.00000
chimesFF: 	6 0 9 0.00000
chimesFF: 	0 9 6 0.00000
chimesFF: 	9 0 6 0.00000
chimesFF: 	6 9 0 0.00000
chimesFF: 	9 6 0 0.00000
chimesFF: 	0 6 10 0.77750
chimesFF: 	6 0 10 0.77750
chimesFF: 	0 10 6 0.77750
chimesFF: 	10 0 6 0.77750
chimesFF: 	6 10 0 0.77750
chimesFF: 	10 6 0 0.77750
chimesFF: 	0 7 7 -0.32407
chimesFF: 	7 0 7 -0.32407
chimesFF: 	7 7 0 -0.32407
chimesFF: 	0 7 8 0.10351
chimesFF: 	7 0 8 0.10351
chimesFF: 	0 8 7 0.10351
chimesFF: 	8 0 7 0.10351
chimesFF: 	7 8 0 0.10351
chimesFF: 	8 7 0 0.10351
chimesFF: 	0 7 9 0.00000
chimesFF: 	7 0 9 0.00000
chimesFF: 	0 9 7 0.00000
chimesFF: 	9 0 7 0.00000
chimesFF: 	7 9 0 0.00000
chimesFF: 	9 7 0 0.00000
chimesFF: 	0 7 10 -0.17252
chimesFF: 	7 0 10 -0.17252
chimesFF: 	0 10 7 -0.17252
chimesFF: 	10 0 7 -0.17252
chimesFF: 	7 10 0 -0.17252
chimesFF: 	10 7 0 -0.17252
chimesFF: 	0 8 8 -0.15875
chimesFF: 	8 0 8 -0.15875
chimesFF: 	8 8 0 -0.15875
chimesFF: 	0 8 9 0.00000
chimesFF: 	8 0 9 0.00000
chimesFF: 	0 9 8 0.00000
chimesFF: 	9 0 8 0.00000
chimesFF: 	8 9 0 0.00000
chimesFF: 	9 8 0 0.00000
chimesFF: 	0 8 10 0.00000
chimesFF: 	8 0 10 0.00000
chimesFF: 	0 10 8 0.00000
chimesFF: 	10 0 8 0.00000
chimesFF: 	8 10 0 0.00000
chimesFF: 	10 8 0 0.00000
chimesFF: 	0 9 9 -0.02343
chimesFF: 	9 0 9 -0.02343
chimesFF: 	9 9 0 -0.02343
chimesFF: 	0 9 10 0.00000
chimesFF: 	9 0 10 0.00000
chimesFF: 	0 10 9 0.00000
chimesFF: 	10 0 9 0.00000
chimesFF: 	9 10 0 0.00000
chimesFF: 	10 9 0 0.00000
chimesFF: 	0 10 10 0.04666
chimesFF: 	10 0 10 0.04666
chimesFF: 	10 10 0 0.04666
chimesFF: 	1 1 1 57.04343
chimesFF: 	1 1 2 0.00000
chimesFF: 	1 2 1 0.00000
chimesFF: 	2 1 1 0.00000
chimesFF: 	1 1 3 3.02401
chimesFF: 	1 3 1 3.02401
chimesFF: 	3 1 1 3.02401
chimesFF: 	1 1 4 22.35699
chimesFF: 	1 4 1 22.35699
chimesFF: 	4 1 1 22.35699
chimesFF: 	1 1 5 1.25055
chimesFF: 	1 5 1 1.25055
chimesFF: 	5 1 1 1.25055
chimesFF: 	1 1 6 0.00000
chimesFF: 	1 6 1 0.00000
chimesFF: 	6 1 1 0.00000
chimesFF: 	1 1 7 0.00000
chimesFF: 	1 7 1 0.00000
chimesFF: 	7 1 1 0.00000
chimesFF: 	1 1 8 3.33583
chimesFF: 	1 8 1 3.33583
chimesFF: 	8 1 1 3.33583
chimesFF: 	1 1 9 -2.70987
chimesFF: 	1 9 1 -2.70987
chimesFF: 	9 1 1 -2.70987
chimesFF: 	1 1 10 4.26896
chimesFF: 	1 10 1 4.26896
chimesFF: 	10 1 1 4.26896
chimesFF: 	1 2 2 12.75506
chimesFF: 	2 1 2 12.75506
chimesFF: 	2 2 1 12.75506
chimesFF: 	1 2 3 -3.53650
chimesFF: 	2 1 3 -3.53650
chimesFF: 	1 3 2 -3.53650
chimesFF: 	3 1 2 -3.53650
chimesFF: 	2 3 1 -3.53650
chimesFF: 	3 2 1 -3.53650
ERROR: LAMMPS coordinate file has 2 atom type masses
       but only found 1 matches with the ChIMES parameter file.
ERROR: LAMMPS coordinate file has 2 atom type masses
       but only found 1 matches with the ChIMES parameter file.
chimesFF: 	1 2 4 0.00000
chimesFF: 	2 1 4 0.00000
chimesFF: 	1 4 2 0.00000
chimesFF: 	4 1 2 0.00000
chimesFF: 	2 4 1 0.00000
chimesFF: 	4 2 1 0.00000
chimesFF: 	1 2 5 0.00000
ERROR: LAMMPS coordinate file has 2 atom type masses
       but only found 1 matches with the ChIMES parameter file.
ERROR: LAMMPS coordinate file has 2 atom type masses
       but only found 1 matches with the ChIMES parameter file.
chimesFF: 	2 1 5 0.00000
chimesFF: 	1 5 2 0.00000
chimesFF: 	5 1 2 0.00000
chimesFF: 	2 5 1 0.00000
chimesFF: 	5 2 1 0.00000
chimesFF: 	1 2 6 0.00000
chimesFF: 	2 1 6 0.00000
ERROR: LAMMPS coordinate file has 2 atom type masses
       but only found 1 matches with the ChIMES parameter file.
ERROR: LAMMPS coordinate file has 2 atom type masses
       but only found 1 matches with the ChIMES parameter file.
chimesFF: 	1 6 2 0.00000
chimesFF: 	6 1 2 0.00000
chimesFF: 	2 6 1 0.00000
chimesFF: 	6 2 1 0.00000
chimesFF: 	1 2 7 0.00000
chimesFF: 	2 1 7 0.00000
chimesFF: 	1 7 2 0.00000
chimesFF: 	7 1 2 0.00000
ERROR: LAMMPS coordinate file has 2 atom type masses
       but only found 1 matches with the ChIMES parameter file.
ERROR: LAMMPS coordinate file has 2 atom type masses
       but only found 1 matches with the ChIMES parameter file.
ERROR: LAMMPS coordinate file has 2 atom type masses
       but only found 1 matches with the ChIMES parameter file.
ERROR: LAMMPS coordinate file has 2 atom type masses
       but only found 1 matches with the ChIMES parameter file.
ERROR: LAMMPS coordinate file has 2 atom type masses
       but only found 1 matches with the ChIMES parameter file.
chimesFF: 	2 7 1 0.00000
chimesFF: 	7 2 1 0.00000
chimesFF: 	1 2 8 0.58828
chimesFF: 	2 1 8 0.58828
chimesFF: 	1 8 2 0.58828
chimesFF: 	8 1 2 0.58828
chimesFF: 	2 8 1 0.58828
chimesFF: 	8 2 1 0.58828
chimesFF: 	1 2 9 -1.35651
chimesFF: 	2 1 9 -1.35651
chimesFF: 	1 9 2 -1.35651
chimesFF: 	9 1 2 -1.35651
chimesFF: 	2 9 1 -1.35651
ERROR: LAMMPS coordinate file has 2 atom type masses
       but only found 1 matches with the ChIMES parameter file.
ERROR: LAMMPS coordinate file has 2 atom type masses
       but only found 1 matches with the ChIMES parameter file.
ERROR: LAMMPS coordinate file has 2 atom type masses
       but only found 1 matches with the ChIMES parameter file.
ERROR: LAMMPS coordinate file has 2 atom type masses
       but only found 1 matches with the ChIMES parameter file.
ERROR: LAMMPS coordinate file has 2 atom type masses
       but only found 1 matches with the ChIMES parameter file.
ERROR: LAMMPS coordinate file has 2 atom type masses
       but only found 1 matches with the ChIMES parameter file.
ERROR: LAMMPS coordinate file has 2 atom type masses
       but only found 1 matches with the ChIMES parameter file.
ERROR: LAMMPS coordinate file has 2 atom type masses
       but only found 1 matches with the ChIMES parameter file.
ERROR: LAMMPS coordinate file has 2 atom type masses
       but only found 1 matches with the ChIMES parameter file.
ERROR: LAMMPS coordinate file has 2 atom type masses
       but only found 1 matches with the ChIMES parameter file.
ERROR: LAMMPS coordinate file has 2 atom type masses
       but only found 1 matches with the ChIMES parameter file.
ERROR: LAMMPS coordinate file has 2 atom type masses
       but only found 1 matches with the ChIMES parameter file.
ERROR: LAMMPS coordinate file has 2 atom type masses
       but only found 1 matches with the ChIMES parameter file.
ERROR: LAMMPS coordinate file has 2 atom type masses
       but only found 1 matches with the ChIMES parameter file.
ERROR: LAMMPS coordinate file has 2 atom type masses
       but only found 1 matches with the ChIMES parameter file.
ERROR: LAMMPS coordinate file has 2 atom type masses
       but only found 1 matches with the ChIMES parameter file.
ERROR: LAMMPS coordinate file has 2 atom type masses
       but only found 1 matches with the ChIMES parameter file.
ERROR: LAMMPS coordinate file has 2 atom type masses
       but only found 1 matches with the ChIMES parameter file.
ERROR: LAMMPS coordinate file has 2 atom type masses
       but only found 1 matches with the ChIMES parameter file.
ERROR: LAMMPS coordinate file has 2 atom type masses
       but only found 1 matches with the ChIMES parameter file.
chimesFF: 	9 2 1 -1.35651
chimesFF: 	1 2 10 0.00000
chimesFF: 	2 1 10 0.00000
chimesFF: 	1 10 2 0.00000
chimesFF: 	10 1 2 0.00000
chimesFF: 	2 10 1 0.00000
chimesFF: 	10 2 1 0.00000
chimesFF: 	1 3 3 0.00000
chimesFF: 	3 1 3 0.00000
chimesFF: 	3 3 1 0.00000
chimesFF: 	1 3 4 3.67227
chimesFF: 	3 1 4 3.67227
chimesFF: 	1 4 3 3.67227
chimesFF: 	4 1 3 3.67227
chimesFF: 	3 4 1 3.67227
chimesFF: 	4 3 1 3.67227
chimesFF: 	1 3 5 -0.29332
chimesFF: 	3 1 5 -0.29332
chimesFF: 	1 5 3 -0.29332
chimesFF: 	5 1 3 -0.29332
chimesFF: 	3 5 1 -0.29332
chimesFF: 	5 3 1 -0.29332
chimesFF: 	1 3 6 -0.67657
chimesFF: 	3 1 6 -0.67657
chimesFF: 	1 6 3 -0.67657
chimesFF: 	6 1 3 -0.67657
chimesFF: 	3 6 1 -0.67657
chimesFF: 	6 3 1 -0.67657
chimesFF: 	1 3 7 0.38156
chimesFF: 	3 1 7 0.38156
chimesFF: 	1 7 3 0.38156
chimesFF: 	7 1 3 0.38156
chimesFF: 	3 7 1 0.38156
chimesFF: 	7 3 1 0.38156
chimesFF: 	1 3 8 0.00000
chimesFF: 	3 1 8 0.00000
chimesFF: 	1 8 3 0.00000
chimesFF: 	8 1 3 0.00000
chimesFF: 	3 8 1 0.00000
chimesFF: 	8 3 1 0.00000
chimesFF: 	1 3 9 0.00000
ERROR: LAMMPS coordinate file has 2 atom type masses
       but only found 1 matches with the ChIMES parameter file.
ERROR: LAMMPS coordinate file has 2 atom type masses
       but only found 1 matches with the ChIMES parameter file.
ERROR: LAMMPS coordinate file has 2 atom type masses
       but only found 1 matches with the ChIMES parameter file.
ERROR: LAMMPS coordinate file has 2 atom type masses
       but only found 1 matches with the ChIMES parameter file.
ERROR: LAMMPS coordinate file has 2 atom type masses
       but only found 1 matches with the ChIMES parameter file.
ERROR: LAMMPS coordinate file has 2 atom type masses
       but only found 1 matches with the ChIMES parameter file.
ERROR: LAMMPS coordinate file has 2 atom type masses
       but only found 1 matches with the ChIMES parameter file.
ERROR: LAMMPS coordinate file has 2 atom type masses
       but only found 1 matches with the ChIMES parameter file.
ERROR: LAMMPS coordinate file has 2 atom type masses
       but only found 1 matches with the ChIMES parameter file.
ERROR: LAMMPS coordinate file has 2 atom type masses
       but only found 1 matches with the ChIMES parameter file.
ERROR: LAMMPS coordinate file has 2 atom type masses
       but only found 1 matches with the ChIMES parameter file.
ERROR: LAMMPS coordinate file has 2 atom type masses
       but only found 1 matches with the ChIMES parameter file.
ERROR: LAMMPS coordinate file has 2 atom type masses
       but only found 1 matches with the ChIMES parameter file.
ERROR: LAMMPS coordinate file has 2 atom type masses
       but only found 1 matches with the ChIMES parameter file.
ERROR: LAMMPS coordinate file has 2 atom type masses
       but only found 1 matches with the ChIMES parameter file.
ERROR: LAMMPS coordinate file has 2 atom type masses
       but only found 1 matches with the ChIMES parameter file.
ERROR: LAMMPS coordinate file has 2 atom type masses
       but only found 1 matches with the ChIMES parameter file.
ERROR: LAMMPS coordinate file has 2 atom type masses
       but only found 1 matches with the ChIMES parameter file.
ERROR: LAMMPS coordinate file has 2 atom type masses
       but only found 1 matches with the ChIMES parameter file.
ERROR: LAMMPS coordinate file has 2 atom type masses
       but only found 1 matches with the ChIMES parameter file.
ERROR: LAMMPS coordinate file has 2 atom type masses
       but only found 1 matches with the ChIMES parameter file.
ERROR: LAMMPS coordinate file has 2 atom type masses
       but only found 1 matches with the ChIMES parameter file.
chimesFF: 	3 1 9 0.00000
chimesFF: 	1 9 3 0.00000
chimesFF: 	9 1 3 0.00000
chimesFF: 	3 9 1 0.00000
chimesFF: 	9 3 1 0.00000
chimesFF: 	1 3 10 0.00000
chimesFF: 	3 1 10 0.00000
chimesFF: 	1 10 3 0.00000
chimesFF: 	10 1 3 0.00000
chimesFF: 	3 10 1 0.00000
chimesFF: 	10 3 1 0.00000
chimesFF: 	1 4 4 9.08511
chimesFF: 	4 1 4 9.08511
chimesFF: 	4 4 1 9.08511
chimesFF: 	1 4 5 2.18819
chimesFF: 	4 1 5 2.18819
chimesFF: 	1 5 4 2.18819
chimesFF: 	5 1 4 2.18819
chimesFF: 	4 5 1 2.18819
chimesFF: 	5 4 1 2.18819
chimesFF: 	1 4 6 0.00000
chimesFF: 	4 1 6 0.00000
chimesFF: 	1 6 4 0.00000
chimesFF: 	6 1 4 0.00000
chimesFF: 	4 6 1 0.00000
chimesFF: 	6 4 1 0.00000
chimesFF: 	1 4 7 0.00000
chimesFF: 	4 1 7 0.00000
chimesFF: 	1 7 4 0.00000
chimesFF: 	7 1 4 0.00000
chimesFF: 	4 7 1 0.00000
chimesFF: 	7 4 1 0.00000
chimesFF: 	1 4 8 0.00000
chimesFF: 	4 1 8 0.00000
chimesFF: 	1 8 4 0.00000
chimesFF: 	8 1 4 0.00000
chimesFF: 	4 8 1 0.00000
chimesFF: 	8 4 1 0.00000
chimesFF: 	1 4 9 0.00000
chimesFF: 	4 1 9 0.00000
chimesFF: 	1 9 4 0.00000
chimesFF: 	9 1 4 0.00000
chimesFF: 	4 9 1 0.00000
chimesFF: 	9 4 1 0.00000
chimesFF: 	1 4 10 -0.47871
chimesFF: 	4 1 10 -0.47871
chimesFF: 	1 10 4 -0.47871
chimesFF: 	10 1 4 -0.47871
chimesFF: 	4 10 1 -0.47871
chimesFF: 	10 4 1 -0.47871
chimesFF: 	1 5 5 0.00000
chimesFF: 	5 1 5 0.00000
chimesFF: 	5 5 1 0.00000
chimesFF: 	1 5 6 3.08422
chimesFF: 	5 1 6 3.08422
chimesFF: 	1 6 5 3.08422
chimesFF: 	6 1 5 3.08422
chimesFF: 	5 6 1 3.08422
chimesFF: 	6 5 1 3.08422
chimesFF: 	1 5 7 1.92340
chimesFF: 	5 1 7 1.92340
chimesFF: 	1 7 5 1.92340
chimesFF: 	7 1 5 1.92340
chimesFF: 	5 7 1 1.92340
chimesFF: 	7 5 1 1.92340
chimesFF: 	1 5 8 -2.69320
chimesFF: 	5 1 8 -2.69320
chimesFF: 	1 8 5 -2.69320
chimesFF: 	8 1 5 -2.69320
chimesFF: 	5 8 1 -2.69320
chimesFF: 	8 5 1 -2.69320
chimesFF: 	1 5 9 1.24530
chimesFF: 	5 1 9 1.24530
chimesFF: 	1 9 5 1.24530
ERROR: LAMMPS coordinate file has 2 atom type masses
       but only found 1 matches with the ChIMES parameter file.
chimesFF: 	9 1 5 1.24530
chimesFF: 	5 9 1 1.24530
chimesFF: 	9 5 1 1.24530
chimesFF: 	1 5 10 -0.77178
chimesFF: 	5 1 10 -0.77178
chimesFF: 	1 10 5 -0.77178
chimesFF: 	10 1 5 -0.77178
chimesFF: 	5 10 1 -0.77178
chimesFF: 	10 5 1 -0.77178
chimesFF: 	1 6 6 -2.68282
chimesFF: 	6 1 6 -2.68282
chimesFF: 	6 6 1 -2.68282
chimesFF: 	1 6 7 5.72727
chimesFF: 	6 1 7 5.72727
chimesFF: 	1 7 6 5.72727
chimesFF: 	7 1 6 5.72727
chimesFF: 	6 7 1 5.72727
chimesFF: 	7 6 1 5.72727
chimesFF: 	1 6 8 0.78670
chimesFF: 	6 1 8 0.78670
chimesFF: 	1 8 6 0.78670
chimesFF: 	8 1 6 0.78670
chimesFF: 	6 8 1 0.78670
chimesFF: 	8 6 1 0.78670
chimesFF: 	1 6 9 0.00000
chimesFF: 	6 1 9 0.00000
chimesFF: 	1 9 6 0.00000
chimesFF: 	9 1 6 0.00000
chimesFF: 	6 9 1 0.00000
chimesFF: 	9 6 1 0.00000
chimesFF: 	1 6 10 0.00000
chimesFF: 	6 1 10 0.00000
chimesFF: 	1 10 6 0.00000
chimesFF: 	10 1 6 0.00000
chimesFF: 	6 10 1 0.00000
chimesFF: 	10 6 1 0.00000
chimesFF: 	1 7 7 -1.57539
chimesFF: 	7 1 7 -1.57539
chimesFF: 	7 7 1 -1.57539
chimesFF: 	1 7 8 0.00000
chimesFF: 	7 1 8 0.00000
chimesFF: 	1 8 7 0.00000
chimesFF: 	8 1 7 0.00000
chimesFF: 	7 8 1 0.00000
chimesFF: 	8 7 1 0.00000
chimesFF: 	1 7 9 0.00000
chimesFF: 	7 1 9 0.00000
chimesFF: 	1 9 7 0.00000
chimesFF: 	9 1 7 0.00000
chimesFF: 	7 9 1 0.00000
chimesFF: 	9 7 1 0.00000
chimesFF: 	1 7 10 0.00000
chimesFF: 	7 1 10 0.00000
chimesFF: 	1 10 7 0.00000
chimesFF: 	10 1 7 0.00000
chimesFF: 	7 10 1 0.00000
chimesFF: 	10 7 1 0.00000
chimesFF: 	1 8 8 0.00000
chimesFF: 	8 1 8 0.00000
chimesFF: 	8 8 1 0.00000
chimesFF: 	1 8 9 0.44791
chimesFF: 	8 1 9 0.44791
chimesFF: 	1 9 8 0.44791
chimesFF: 	9 1 8 0.44791
chimesFF: 	8 9 1 0.44791
chimesFF: 	9 8 1 0.44791
chimesFF: 	1 8 10 0.02009
chimesFF: 	8 1 10 0.02009
chimesFF: 	1 10 8 0.02009
chimesFF: 	10 1 8 0.02009
chimesFF: 	8 10 1 0.02009
chimesFF: 	10 8 1 0.02009
chimesFF: 	1 9 9 0.00000
chimesFF: 	9 1 9 0.00000
chimesFF: 	9 9 1 0.00000
chimesFF: 	1 9 10 0.59804
chimesFF: 	9 1 10 0.59804
chimesFF: 	1 10 9 0.59804
chimesFF: 	10 1 9 0.59804
chimesFF: 	9 10 1 0.59804
chimesFF: 	10 9 1 0.59804
chimesFF: 	1 10 10 0.00000
chimesFF: 	10 1 10 0.00000
chimesFF: 	10 10 1 0.00000
chimesFF: 	2 2 2 0.00000
chimesFF: 	2 2 3 0.00000
chimesFF: 	2 3 2 0.00000
chimesFF: 	3 2 2 0.00000
chimesFF: 	2 2 4 0.00000
chimesFF: 	2 4 2 0.00000
chimesFF: 	4 2 2 0.00000
chimesFF: 	2 2 5 7.45845
chimesFF: 	2 5 2 7.45845
chimesFF: 	5 2 2 7.45845
chimesFF: 	2 2 6 -0.64331
chimesFF: 	2 6 2 -0.64331
chimesFF: 	6 2 2 -0.64331
chimesFF: 	2 2 7 2.37242
chimesFF: 	2 7 2 2.37242
chimesFF: 	7 2 2 2.37242
chimesFF: 	2 2 8 0.00000
chimesFF: 	2 8 2 0.00000
chimesFF: 	8 2 2 0.00000
chimesFF: 	2 2 9 0.00000
chimesFF: 	2 9 2 0.00000
chimesFF: 	9 2 2 0.00000
chimesFF: 	2 2 10 -1.42264
chimesFF: 	2 10 2 -1.42264
chimesFF: 	10 2 2 -1.42264
chimesFF: 	2 3 3 4.71679
chimesFF: 	3 2 3 4.71679
chimesFF: 	3 3 2 4.71679
chimesFF: 	2 3 4 -1.64104
chimesFF: 	3 2 4 -1.64104
chimesFF: 	2 4 3 -1.64104
chimesFF: 	4 2 3 -1.64104
chimesFF: 	3 4 2 -1.64104
chimesFF: 	4 3 2 -1.64104
chimesFF: 	2 3 5 0.00000
chimesFF: 	3 2 5 0.00000
chimesFF: 	2 5 3 0.00000
chimesFF: 	5 2 3 0.00000
chimesFF: 	3 5 2 0.00000
chimesFF: 	5 3 2 0.00000
chimesFF: 	2 3 6 0.00000
chimesFF: 	3 2 6 0.00000
chimesFF: 	2 6 3 0.00000
chimesFF: 	6 2 3 0.00000
chimesFF: 	3 6 2 0.00000
chimesFF: 	6 3 2 0.00000
chimesFF: 	2 3 7 -0.68336
chimesFF: 	3 2 7 -0.68336
chimesFF: 	2 7 3 -0.68336
chimesFF: 	7 2 3 -0.68336
chimesFF: 	3 7 2 -0.68336
chimesFF: 	7 3 2 -0.68336
chimesFF: 	2 3 8 0.00000
chimesFF: 	3 2 8 0.00000
chimesFF: 	2 8 3 0.00000
chimesFF: 	8 2 3 0.00000
chimesFF: 	3 8 2 0.00000
chimesFF: 	8 3 2 0.00000
chimesFF: 	2 3 9 1.02831
chimesFF: 	3 2 9 1.02831
chimesFF: 	2 9 3 1.02831
chimesFF: 	9 2 3 1.02831
chimesFF: 	3 9 2 1.02831
chimesFF: 	9 3 2 1.02831
chimesFF: 	2 3 10 0.34154
chimesFF: 	3 2 10 0.34154
chimesFF: 	2 10 3 0.34154
chimesFF: 	10 2 3 0.34154
chimesFF: 	3 10 2 0.34154
chimesFF: 	10 3 2 0.34154
chimesFF: 	2 4 4 1.69830
chimesFF: 	4 2 4 1.69830
chimesFF: 	4 4 2 1.69830
chimesFF: 	2 4 5 -0.60165
chimesFF: 	4 2 5 -0.60165
chimesFF: 	2 5 4 -0.60165
chimesFF: 	5 2 4 -0.60165
chimesFF: 	4 5 2 -0.60165
ERROR: LAMMPS coordinate file has 2 atom type masses
       but only found 1 matches with the ChIMES parameter file.
chimesFF: 	5 4 2 -0.60165
chimesFF: 	2 4 6 6.59843
chimesFF: 	4 2 6 6.59843
chimesFF: 	2 6 4 6.59843
chimesFF: 	6 2 4 6.59843
chimesFF: 	4 6 2 6.59843
chimesFF: 	6 4 2 6.59843
chimesFF: 	2 4 7 0.00000
chimesFF: 	4 2 7 0.00000
chimesFF: 	2 7 4 0.00000
chimesFF: 	7 2 4 0.00000
chimesFF: 	4 7 2 0.00000
chimesFF: 	7 4 2 0.00000
chimesFF: 	2 4 8 -0.10918
chimesFF: 	4 2 8 -0.10918
chimesFF: 	2 8 4 -0.10918
chimesFF: 	8 2 4 -0.10918
chimesFF: 	4 8 2 -0.10918
chimesFF: 	8 4 2 -0.10918
chimesFF: 	2 4 9 -0.28467
chimesFF: 	4 2 9 -0.28467
chimesFF: 	2 9 4 -0.28467
chimesFF: 	9 2 4 -0.28467
chimesFF: 	4 9 2 -0.28467
chimesFF: 	9 4 2 -0.28467
chimesFF: 	2 4 10 -0.28583
chimesFF: 	4 2 10 -0.28583
chimesFF: 	2 10 4 -0.28583
chimesFF: 	10 2 4 -0.28583
chimesFF: 	4 10 2 -0.28583
chimesFF: 	10 4 2 -0.28583
chimesFF: 	2 5 5 -5.61427
chimesFF: 	5 2 5 -5.61427
chimesFF: 	5 5 2 -5.61427
chimesFF: 	2 5 6 0.00000
chimesFF: 	5 2 6 0.00000
chimesFF: 	2 6 5 0.00000
chimesFF: 	6 2 5 0.00000
chimesFF: 	5 6 2 0.00000
chimesFF: 	6 5 2 0.00000
chimesFF: 	2 5 7 0.49384
chimesFF: 	5 2 7 0.49384
chimesFF: 	2 7 5 0.49384
chimesFF: 	7 2 5 0.49384
chimesFF: 	5 7 2 0.49384
chimesFF: 	7 5 2 0.49384
chimesFF: 	2 5 8 -1.48640
chimesFF: 	5 2 8 -1.48640
chimesFF: 	2 8 5 -1.48640
chimesFF: 	8 2 5 -1.48640
chimesFF: 	5 8 2 -1.48640
chimesFF: 	8 5 2 -1.48640
chimesFF: 	2 5 9 0.00000
chimesFF: 	5 2 9 0.00000
chimesFF: 	2 9 5 0.00000
chimesFF: 	9 2 5 0.00000
chimesFF: 	5 9 2 0.00000
chimesFF: 	9 5 2 0.00000
chimesFF: 	2 5 10 0.00000
chimesFF: 	5 2 10 0.00000
chimesFF: 	2 10 5 0.00000
chimesFF: 	10 2 5 0.00000
chimesFF: 	5 10 2 0.00000
chimesFF: 	10 5 2 0.00000
chimesFF: 	2 6 6 0.00000
chimesFF: 	6 2 6 0.00000
chimesFF: 	6 6 2 0.00000
chimesFF: 	2 6 7 -0.62845
chimesFF: 	6 2 7 -0.62845
chimesFF: 	2 7 6 -0.62845
chimesFF: 	7 2 6 -0.62845
chimesFF: 	6 7 2 -0.62845
chimesFF: 	7 6 2 -0.62845
chimesFF: 	2 6 8 0.71502
chimesFF: 	6 2 8 0.71502
chimesFF: 	2 8 6 0.71502
chimesFF: 	8 2 6 0.71502
chimesFF: 	6 8 2 0.71502
chimesFF: 	8 6 2 0.71502
chimesFF: 	2 6 9 -0.14043
chimesFF: 	6 2 9 -0.14043
chimesFF: 	2 9 6 -0.14043
chimesFF: 	9 2 6 -0.14043
chimesFF: 	6 9 2 -0.14043
chimesFF: 	9 6 2 -0.14043
chimesFF: 	2 6 10 0.76020
chimesFF: 	6 2 10 0.76020
chimesFF: 	2 10 6 0.76020
chimesFF: 	10 2 6 0.76020
chimesFF: 	6 10 2 0.76020
chimesFF: 	10 6 2 0.76020
chimesFF: 	2 7 7 0.00000
chimesFF: 	7 2 7 0.00000
chimesFF: 	7 7 2 0.00000
chimesFF: 	2 7 8 0.00000
chimesFF: 	7 2 8 0.00000
chimesFF: 	2 8 7 0.00000
chimesFF: 	8 2 7 0.00000
chimesFF: 	7 8 2 0.00000
chimesFF: 	8 7 2 0.00000
chimesFF: 	2 7 9 0.00000
chimesFF: 	7 2 9 0.00000
chimesFF: 	2 9 7 0.00000
chimesFF: 	9 2 7 0.00000
chimesFF: 	7 9 2 0.00000
chimesFF: 	9 7 2 0.00000
chimesFF: 	2 7 10 0.00000
chimesFF: 	7 2 10 0.00000
chimesFF: 	2 10 7 0.00000
chimesFF: 	10 2 7 0.00000
chimesFF: 	7 10 2 0.00000
chimesFF: 	10 7 2 0.00000
chimesFF: 	2 8 8 0.00000
chimesFF: 	8 2 8 0.00000
chimesFF: 	8 8 2 0.00000
chimesFF: 	2 8 9 -0.14076
chimesFF: 	8 2 9 -0.14076
chimesFF: 	2 9 8 -0.14076
chimesFF: 	9 2 8 -0.14076
chimesFF: 	8 9 2 -0.14076
chimesFF: 	9 8 2 -0.14076
chimesFF: 	2 8 10 0.00000
chimesFF: 	8 2 10 0.00000
chimesFF: 	2 10 8 0.00000
chimesFF: 	10 2 8 0.00000
chimesFF: 	8 10 2 0.00000
chimesFF: 	10 8 2 0.00000
chimesFF: 	2 9 9 0.00000
chimesFF: 	9 2 9 0.00000
chimesFF: 	9 9 2 0.00000
chimesFF: 	2 9 10 0.12536
chimesFF: 	9 2 10 0.12536
chimesFF: 	2 10 9 0.12536
chimesFF: 	10 2 9 0.12536
chimesFF: 	9 10 2 0.12536
chimesFF: 	10 9 2 0.12536
chimesFF: 	2 10 10 0.00000
chimesFF: 	10 2 10 0.00000
chimesFF: 	10 10 2 0.00000
chimesFF: 	3 3 3 0.00000
chimesFF: 	3 3 4 0.00000
chimesFF: 	3 4 3 0.00000
chimesFF: 	4 3 3 0.00000
chimesFF: 	3 3 5 1.26437
chimesFF: 	3 5 3 1.26437
chimesFF: 	5 3 3 1.26437
chimesFF: 	3 3 6 0.00000
chimesFF: 	3 6 3 0.00000
chimesFF: 	6 3 3 0.00000
chimesFF: 	3 3 7 -0.40936
chimesFF: 	3 7 3 -0.40936
chimesFF: 	7 3 3 -0.40936
chimesFF: 	3 3 8 1.73429
chimesFF: 	3 8 3 1.73429
chimesFF: 	8 3 3 1.73429
chimesFF: 	3 3 9 0.26853
chimesFF: 	3 9 3 0.26853
chimesFF: 	9 3 3 0.26853
chimesFF: 	3 3 10 0.00000
chimesFF: 	3 10 3 0.00000
chimesFF: 	10 3 3 0.00000
chimesFF: 	3 4 4 6.12636
chimesFF: 	4 3 4 6.12636
chimesFF: 	4 4 3 6.12636
chimesFF: 	3 4 5 0.00000
chimesFF: 	4 3 5 0.00000
chimesFF: 	3 5 4 0.00000
chimesFF: 	5 3 4 0.00000
chimesFF: 	4 5 3 0.00000
chimesFF: 	5 4 3 0.00000
chimesFF: 	3 4 6 0.77514
chimesFF: 	4 3 6 0.77514
chimesFF: 	3 6 4 0.77514
chimesFF: 	6 3 4 0.77514
chimesFF: 	4 6 3 0.77514
chimesFF: 	6 4 3 0.77514
chimesFF: 	3 4 7 -2.90969
chimesFF: 	4 3 7 -2.90969
chimesFF: 	3 7 4 -2.90969
chimesFF: 	7 3 4 -2.90969
chimesFF: 	4 7 3 -2.90969
chimesFF: 	7 4 3 -2.90969
chimesFF: 	3 4 8 0.00000
chimesFF: 	4 3 8 0.00000
chimesFF: 	3 8 4 0.00000
chimesFF: 	8 3 4 0.00000
chimesFF: 	4 8 3 0.00000
chimesFF: 	8 4 3 0.00000
chimesFF: 	3 4 9 0.00000
chimesFF: 	4 3 9 0.00000
chimesFF: 	3 9 4 0.00000
chimesFF: 	9 3 4 0.00000
chimesFF: 	4 9 3 0.00000
chimesFF: 	9 4 3 0.00000
chimesFF: 	3 4 10 -0.13524
chimesFF: 	4 3 10 -0.13524
chimesFF: 	3 10 4 -0.13524
chimesFF: 	10 3 4 -0.13524
chimesFF: 	4 10 3 -0.13524
chimesFF: 	10 4 3 -0.13524
chimesFF: 	3 5 5 0.00000
chimesFF: 	5 3 5 0.00000
chimesFF: 	5 5 3 0.00000
chimesFF: 	3 5 6 1.30857
chimesFF: 	5 3 6 1.30857
chimesFF: 	3 6 5 1.30857
chimesFF: 	6 3 5 1.30857
chimesFF: 	5 6 3 1.30857
chimesFF: 	6 5 3 1.30857
chimesFF: 	3 5 7 0.00000
chimesFF: 	5 3 7 0.00000
chimesFF: 	3 7 5 0.00000
chimesFF: 	7 3 5 0.00000
chimesFF: 	5 7 3 0.00000
chimesFF: 	7 5 3 0.00000
chimesFF: 	3 5 8 0.00000
chimesFF: 	5 3 8 0.00000
chimesFF: 	3 8 5 0.00000
chimesFF: 	8 3 5 0.00000
chimesFF: 	5 8 3 0.00000
chimesFF: 	8 5 3 0.00000
chimesFF: 	3 5 9 0.00000
chimesFF: 	5 3 9 0.00000
chimesFF: 	3 9 5 0.00000
chimesFF: 	9 3 5 0.00000
chimesFF: 	5 9 3 0.00000
chimesFF: 	9 5 3 0.00000
chimesFF: 	3 5 10 0.00000
chimesFF: 	5 3 10 0.00000
chimesFF: 	3 10 5 0.00000
chimesFF: 	10 3 5 0.00000
chimesFF: 	5 10 3 0.00000
chimesFF: 	10 5 3 0.00000
chimesFF: 	3 6 6 -1.43656
chimesFF: 	6 3 6 -1.43656
chimesFF: 	6 6 3 -1.43656
chimesFF: 	3 6 7 0.80391
chimesFF: 	6 3 7 0.80391
chimesFF: 	3 7 6 0.80391
chimesFF: 	7 3 6 0.80391
chimesFF: 	6 7 3 0.80391
chimesFF: 	7 6 3 0.80391
chimesFF: 	3 6 8 0.00000
chimesFF: 	6 3 8 0.00000
chimesFF: 	3 8 6 0.00000
chimesFF: 	8 3 6 0.00000
chimesFF: 	6 8 3 0.00000
chimesFF: 	8 6 3 0.00000
chimesFF: 	3 6 9 -0.51108
chimesFF: 	6 3 9 -0.51108
chimesFF: 	3 9 6 -0.51108
chimesFF: 	9 3 6 -0.51108
chimesFF: 	6 9 3 -0.51108
chimesFF: 	9 6 3 -0.51108
chimesFF: 	3 6 10 0.00000
chimesFF: 	6 3 10 0.00000
chimesFF: 	3 10 6 0.00000
chimesFF: 	10 3 6 0.00000
chimesFF: 	6 10 3 0.00000
chimesFF: 	10 6 3 0.00000
chimesFF: 	3 7 7 -1.21747
chimesFF: 	7 3 7 -1.21747
chimesFF: 	7 7 3 -1.21747
chimesFF: 	3 7 8 0.00000
chimesFF: 	7 3 8 0.00000
chimesFF: 	3 8 7 0.00000
chimesFF: 	8 3 7 0.00000
chimesFF: 	7 8 3 0.00000
chimesFF: 	8 7 3 0.00000
chimesFF: 	3 7 9 0.00000
chimesFF: 	7 3 9 0.00000
chimesFF: 	3 9 7 0.00000
chimesFF: 	9 3 7 0.00000
chimesFF: 	7 9 3 0.00000
chimesFF: 	9 7 3 0.00000
chimesFF: 	3 7 10 -0.01984
chimesFF: 	7 3 10 -0.01984
chimesFF: 	3 10 7 -0.01984
chimesFF: 	10 3 7 -0.01984
chimesFF: 	7 10 3 -0.01984
chimesFF: 	10 7 3 -0.01984
chimesFF: 	3 8 8 -0.79118
chimesFF: 	8 3 8 -0.79118
chimesFF: 	8 8 3 -0.79118
chimesFF: 	3 8 9 0.66682
chimesFF: 	8 3 9 0.66682
chimesFF: 	3 9 8 0.66682
chimesFF: 	9 3 8 0.66682
chimesFF: 	8 9 3 0.66682
chimesFF: 	9 8 3 0.66682
chimesFF: 	3 8 10 -0.26758
chimesFF: 	8 3 10 -0.26758
chimesFF: 	3 10 8 -0.26758
chimesFF: 	10 3 8 -0.26758
chimesFF: 	8 10 3 -0.26758
chimesFF: 	10 8 3 -0.26758
chimesFF: 	3 9 9 -0.13134
chimesFF: 	9 3 9 -0.13134
chimesFF: 	9 9 3 -0.13134
chimesFF: 	3 9 10 0.53215
chimesFF: 	9 3 10 0.53215
chimesFF: 	3 10 9 0.53215
chimesFF: 	10 3 9 0.53215
chimesFF: 	9 10 3 0.53215
chimesFF: 	10 9 3 0.53215
chimesFF: 	3 10 10 -0.01306
chimesFF: 	10 3 10 -0.01306
chimesFF: 	10 10 3 -0.01306
chimesFF: 	4 4 4 -6.59795
chimesFF: 	4 4 5 0.00000
chimesFF: 	4 5 4 0.00000
chimesFF: 	5 4 4 0.00000
chimesFF: 	4 4 6 1.76690
chimesFF: 	4 6 4 1.76690
chimesFF: 	6 4 4 1.76690
chimesFF: 	4 4 7 1.29715
chimesFF: 	4 7 4 1.29715
chimesFF: 	7 4 4 1.29715
chimesFF: 	4 4 8 -3.46867
chimesFF: 	4 8 4 -3.46867
chimesFF: 	8 4 4 -3.46867
chimesFF: 	4 4 9 0.06212
chimesFF: 	4 9 4 0.06212
chimesFF: 	9 4 4 0.06212
chimesFF: 	4 4 10 -0.70580
chimesFF: 	4 10 4 -0.70580
chimesFF: 	10 4 4 -0.70580
chimesFF: 	4 5 5 0.00000
chimesFF: 	5 4 5 0.00000
chimesFF: 	5 5 4 0.00000
chimesFF: 	4 5 6 -0.48520
chimesFF: 	5 4 6 -0.48520
chimesFF: 	4 6 5 -0.48520
chimesFF: 	6 4 5 -0.48520
chimesFF: 	5 6 4 -0.48520
chimesFF: 	6 5 4 -0.48520
chimesFF: 	4 5 7 0.76765
chimesFF: 	5 4 7 0.76765
chimesFF: 	4 7 5 0.76765
chimesFF: 	7 4 5 0.76765
chimesFF: 	5 7 4 0.76765
chimesFF: 	7 5 4 0.76765
chimesFF: 	4 5 8 -0.40767
chimesFF: 	5 4 8 -0.40767
chimesFF: 	4 8 5 -0.40767
chimesFF: 	8 4 5 -0.40767
chimesFF: 	5 8 4 -0.40767
chimesFF: 	8 5 4 -0.40767
chimesFF: 	4 5 9 -0.35678
chimesFF: 	5 4 9 -0.35678
chimesFF: 	4 9 5 -0.35678
chimesFF: 	9 4 5 -0.35678
chimesFF: 	5 9 4 -0.35678
chimesFF: 	9 5 4 -0.35678
chimesFF: 	4 5 10 0.00000
chimesFF: 	5 4 10 0.00000
chimesFF: 	4 10 5 0.00000
chimesFF: 	10 4 5 0.00000
chimesFF: 	5 10 4 0.00000
chimesFF: 	10 5 4 0.00000
chimesFF: 	4 6 6 0.00000
chimesFF: 	6 4 6 0.00000
chimesFF: 	6 6 4 0.00000
chimesFF: 	4 6 7 0.59249
chimesFF: 	6 4 7 0.59249
chimesFF: 	4 7 6 0.59249
chimesFF: 	7 4 6 0.59249
chimesFF: 	6 7 4 0.59249
chimesFF: 	7 6 4 0.59249
chimesFF: 	4 6 8 -1.17716
chimesFF: 	6 4 8 -1.17716
chimesFF: 	4 8 6 -1.17716
chimesFF: 	8 4 6 -1.17716
chimesFF: 	6 8 4 -1.17716
chimesFF: 	8 6 4 -1.17716
chimesFF: 	4 6 9 0.18030
chimesFF: 	6 4 9 0.18030
chimesFF: 	4 9 6 0.18030
chimesFF: 	9 4 6 0.18030
chimesFF: 	6 9 4 0.18030
chimesFF: 	9 6 4 0.18030
chimesFF: 	4 6 10 0.14885
chimesFF: 	6 4 10 0.14885
chimesFF: 	4 10 6 0.14885
chimesFF: 	10 4 6 0.14885
chimesFF: 	6 10 4 0.14885
chimesFF: 	10 6 4 0.14885
chimesFF: 	4 7 7 0.00000
chimesFF: 	7 4 7 0.00000
chimesFF: 	7 7 4 0.00000
chimesFF: 	4 7 8 0.34622
chimesFF: 	7 4 8 0.34622
chimesFF: 	4 8 7 0.34622
chimesFF: 	8 4 7 0.34622
chimesFF: 	7 8 4 0.34622
chimesFF: 	8 7 4 0.34622
chimesFF: 	4 7 9 0.02355
chimesFF: 	7 4 9 0.02355
chimesFF: 	4 9 7 0.02355
chimesFF: 	9 4 7 0.02355
chimesFF: 	7 9 4 0.02355
chimesFF: 	9 7 4 0.02355
chimesFF: 	4 7 10 -0.18239
chimesFF: 	7 4 10 -0.18239
chimesFF: 	4 10 7 -0.18239
chimesFF: 	10 4 7 -0.18239
chimesFF: 	7 10 4 -0.18239
chimesFF: 	10 7 4 -0.18239
chimesFF: 	4 8 8 -1.18084
chimesFF: 	8 4 8 -1.18084
chimesFF: 	8 8 4 -1.18084
chimesFF: 	4 8 9 0.02428
chimesFF: 	8 4 9 0.02428
chimesFF: 	4 9 8 0.02428
chimesFF: 	9 4 8 0.02428
chimesFF: 	8 9 4 0.02428
chimesFF: 	9 8 4 0.02428
chimesFF: 	4 8 10 0.00000
chimesFF: 	8 4 10 0.00000
chimesFF: 	4 10 8 0.00000
chimesFF: 	10 4 8 0.00000
chimesFF: 	8 10 4 0.00000
chimesFF: 	10 8 4 0.00000
chimesFF: 	4 9 9 0.43869
chimesFF: 	9 4 9 0.43869
chimesFF: 	9 9 4 0.43869
chimesFF: 	4 9 10 0.13626
chimesFF: 	9 4 10 0.13626
chimesFF: 	4 10 9 0.13626
chimesFF: 	10 4 9 0.13626
chimesFF: 	9 10 4 0.13626
chimesFF: 	10 9 4 0.13626
chimesFF: 	4 10 10 0.00000
chimesFF: 	10 4 10 0.00000
chimesFF: 	10 10 4 0.00000
chimesFF: 	5 5 5 0.00000
chimesFF: 	5 5 6 0.00000
chimesFF: 	5 6 5 0.00000
chimesFF: 	6 5 5 0.00000
chimesFF: 	5 5 7 0.00000
chimesFF: 	5 7 5 0.00000
chimesFF: 	7 5 5 0.00000
chimesFF: 	5 5 8 0.00000
chimesFF: 	5 8 5 0.00000
chimesFF: 	8 5 5 0.00000
chimesFF: 	5 5 9 -0.71379
chimesFF: 	5 9 5 -0.71379
chimesFF: 	9 5 5 -0.71379
chimesFF: 	5 5 10 0.00000
chimesFF: 	5 10 5 0.00000
chimesFF: 	10 5 5 0.00000
chimesFF: 	5 6 6 0.00000
chimesFF: 	6 5 6 0.00000
chimesFF: 	6 6 5 0.00000
chimesFF: 	5 6 7 0.00000
chimesFF: 	6 5 7 0.00000
chimesFF: 	5 7 6 0.00000
chimesFF: 	7 5 6 0.00000
chimesFF: 	6 7 5 0.00000
chimesFF: 	7 6 5 0.00000
chimesFF: 	5 6 8 0.73107
chimesFF: 	6 5 8 0.73107
chimesFF: 	5 8 6 0.73107
chimesFF: 	8 5 6 0.73107
chimesFF: 	6 8 5 0.73107
chimesFF: 	8 6 5 0.73107
chimesFF: 	5 6 9 -1.11266
chimesFF: 	6 5 9 -1.11266
chimesFF: 	5 9 6 -1.11266
chimesFF: 	9 5 6 -1.11266
chimesFF: 	6 9 5 -1.11266
chimesFF: 	9 6 5 -1.11266
chimesFF: 	5 6 10 0.21413
chimesFF: 	6 5 10 0.21413
chimesFF: 	5 10 6 0.21413
chimesFF: 	10 5 6 0.21413
chimesFF: 	6 10 5 0.21413
chimesFF: 	10 6 5 0.21413
chimesFF: 	5 7 7 0.00000
chimesFF: 	7 5 7 0.00000
chimesFF: 	7 7 5 0.00000
chimesFF: 	5 7 8 0.08681
chimesFF: 	7 5 8 0.08681
chimesFF: 	5 8 7 0.08681
chimesFF: 	8 5 7 0.08681
chimesFF: 	7 8 5 0.08681
chimesFF: 	8 7 5 0.08681
chimesFF: 	5 7 9 0.00000
chimesFF: 	7 5 9 0.00000
chimesFF: 	5 9 7 0.00000
chimesFF: 	9 5 7 0.00000
chimesFF: 	7 9 5 0.00000
chimesFF: 	9 7 5 0.00000
chimesFF: 	5 7 10 -0.50167
chimesFF: 	7 5 10 -0.50167
chimesFF: 	5 10 7 -0.50167
chimesFF: 	10 5 7 -0.50167
chimesFF: 	7 10 5 -0.50167
chimesFF: 	10 7 5 -0.50167
chimesFF: 	5 8 8 -0.00829
chimesFF: 	8 5 8 -0.00829
chimesFF: 	8 8 5 -0.00829
chimesFF: 	5 8 9 0.00000
chimesFF: 	8 5 9 0.00000
chimesFF: 	5 9 8 0.00000
chimesFF: 	9 5 8 0.00000
chimesFF: 	8 9 5 0.00000
chimesFF: 	9 8 5 0.00000
chimesFF: 	5 8 10 -0.08094
chimesFF: 	8 5 10 -0.08094
chimesFF: 	5 10 8 -0.08094
chimesFF: 	10 5 8 -0.08094
chimesFF: 	8 10 5 -0.08094
chimesFF: 	10 8 5 -0.08094
chimesFF: 	5 9 9 -0.30258
chimesFF: 	9 5 9 -0.30258
chimesFF: 	9 9 5 -0.30258
chimesFF: 	5 9 10 0.00948
chimesFF: 	9 5 10 0.00948
chimesFF: 	5 10 9 0.00948
chimesFF: 	10 5 9 0.00948
chimesFF: 	9 10 5 0.00948
chimesFF: 	10 9 5 0.00948
chimesFF: 	5 10 10 0.15987
chimesFF: 	10 5 10 0.15987
chimesFF: 	10 10 5 0.15987
chimesFF: 	6 6 6 0.62437
chimesFF: 	6 6 7 0.00000
chimesFF: 	6 7 6 0.00000
chimesFF: 	7 6 6 0.00000
chimesFF: 	6 6 8 0.00000
chimesFF: 	6 8 6 0.00000
chimesFF: 	8 6 6 0.00000
chimesFF: 	6 6 9 0.00000
chimesFF: 	6 9 6 0.00000
chimesFF: 	9 6 6 0.00000
chimesFF: 	6 6 10 0.00000
chimesFF: 	6 10 6 0.00000
chimesFF: 	10 6 6 0.00000
chimesFF: 	6 7 7 -0.36309
chimesFF: 	7 6 7 -0.36309
chimesFF: 	7 7 6 -0.36309
chimesFF: 	6 7 8 0.00000
chimesFF: 	7 6 8 0.00000
chimesFF: 	6 8 7 0.00000
chimesFF: 	8 6 7 0.00000
chimesFF: 	7 8 6 0.00000
chimesFF: 	8 7 6 0.00000
chimesFF: 	6 7 9 -0.08759
chimesFF: 	7 6 9 -0.08759
chimesFF: 	6 9 7 -0.08759
chimesFF: 	9 6 7 -0.08759
chimesFF: 	7 9 6 -0.08759
chimesFF: 	9 7 6 -0.08759
chimesFF: 	6 7 10 -0.17721
chimesFF: 	7 6 10 -0.17721
chimesFF: 	6 10 7 -0.17721
chimesFF: 	10 6 7 -0.17721
chimesFF: 	7 10 6 -0.17721
chimesFF: 	10 7 6 -0.17721
chimesFF: 	6 8 8 0.00000
chimesFF: 	8 6 8 0.00000
chimesFF: 	8 8 6 0.00000
chimesFF: 	6 8 9 0.00000
chimesFF: 	8 6 9 0.00000
chimesFF: 	6 9 8 0.00000
chimesFF: 	9 6 8 0.00000
chimesFF: 	8 9 6 0.00000
chimesFF: 	9 8 6 0.00000
chimesFF: 	6 8 10 0.00000
chimesFF: 	8 6 10 0.00000
chimesFF: 	6 10 8 0.00000
chimesFF: 	10 6 8 0.00000
chimesFF: 	8 10 6 0.00000
chimesFF: 	10 8 6 0.00000
chimesFF: 	6 9 9 0.59604
chimesFF: 	9 6 9 0.59604
chimesFF: 	9 9 6 0.59604
chimesFF: 	6 9 10 -0.05176
chimesFF: 	9 6 10 -0.05176
chimesFF: 	6 10 9 -0.05176
chimesFF: 	10 6 9 -0.05176
chimesFF: 	9 10 6 -0.05176
chimesFF: 	10 9 6 -0.05176
chimesFF: 	6 10 10 -0.36515
chimesFF: 	10 6 10 -0.36515
chimesFF: 	10 10 6 -0.36515
chimesFF: 	7 7 7 1.38325
chimesFF: 	7 7 8 0.00000
chimesFF: 	7 8 7 0.00000
chimesFF: 	8 7 7 0.00000
chimesFF: 	7 7 9 0.58315
chimesFF: 	7 9 7 0.58315
chimesFF: 	9 7 7 0.58315
chimesFF: 	7 7 10 -0.54753
chimesFF: 	7 10 7 -0.54753
chimesFF: 	10 7 7 -0.54753
chimesFF: 	7 8 8 -0.42832
chimesFF: 	8 7 8 -0.42832
chimesFF: 	8 8 7 -0.42832
chimesFF: 	7 8 9 0.21179
chimesFF: 	8 7 9 0.21179
chimesFF: 	7 9 8 0.21179
chimesFF: 	9 7 8 0.21179
chimesFF: 	8 9 7 0.21179
chimesFF: 	9 8 7 0.21179
chimesFF: 	7 8 10 -0.27592
chimesFF: 	8 7 10 -0.27592
chimesFF: 	7 10 8 -0.27592
chimesFF: 	10 7 8 -0.27592
chimesFF: 	8 10 7 -0.27592
chimesFF: 	10 8 7 -0.27592
chimesFF: 	7 9 9 -0.22520
chimesFF: 	9 7 9 -0.22520
chimesFF: 	9 9 7 -0.22520
chimesFF: 	7 9 10 0.03644
chimesFF: 	9 7 10 0.03644
chimesFF: 	7 10 9 0.03644
chimesFF: 	10 7 9 0.03644
chimesFF: 	9 10 7 0.03644
chimesFF: 	10 9 7 0.03644
chimesFF: 	7 10 10 0.06542
chimesFF: 	10 7 10 0.06542
chimesFF: 	10 10 7 0.06542
chimesFF: 	8 8 8 1.00467
chimesFF: 	8 8 9 0.01243
chimesFF: 	8 9 8 0.01243
chimesFF: 	9 8 8 0.01243
chimesFF: 	8 8 10 0.15437
chimesFF: 	8 10 8 0.15437
chimesFF: 	10 8 8 0.15437
chimesFF: 	8 9 9 0.34960
chimesFF: 	9 8 9 0.34960
chimesFF: 	9 9 8 0.34960
chimesFF: 	8 9 10 -0.11480
chimesFF: 	9 8 10 -0.11480
chimesFF: 	8 10 9 -0.11480
chimesFF: 	10 8 9 -0.11480
chimesFF: 	9 10 8 -0.11480
chimesFF: 	10 9 8 -0.11480
chimesFF: 	8 10 10 -0.43786
chimesFF: 	10 8 10 -0.43786
chimesFF: 	10 10 8 -0.43786
chimesFF: 	9 9 9 -0.20265
chimesFF: 	9 9 10 0.11984
chimesFF: 	9 10 9 0.11984
chimesFF: 	10 9 9 0.11984
chimesFF: 	9 10 10 0.00240
chimesFF: 	10 9 10 0.00240
chimesFF: 	10 10 9 0.00240
chimesFF: 	10 10 10 -0.59318
chimesFF: Built the following 3-body pair "slow" map:
chimesFF: 	0 SiSiSiSiSiSi
chimesFF: Built the following 3-body pair "fast" map:
chimesFF: 	0 0
chimesFF: Set the following special 3-body outer cutoffs: 
chimesFF: 	0 6.00000 6.00000 6.00000
ERROR: LAMMPS coordinate file has 2 atom type masses
       but only found 1 matches with the ChIMES parameter file.
