ITEM: TIMESTEP
0
ITEM: NUMBER OF ATOMS
216
ITEM: BOX BOUNDS xy xz yz pp pp pp
0.0000000000000000e+00 1.3061979742700000e+01 0.0000000000000000e+00
0.0000000000000000e+00 1.3061979742700000e+01 0.0000000000000000e+00
0.0000000000000000e+00 1.3061979742700000e+01 0.0000000000000000e+00
ITEM: ATOMS id element xu yu zu fx fy fz
1 C 8.79351 8.75661 8.6418 -23.302 -27.0053 18.1593
2 C 8.6922 10.9256 10.7842 1.14857 -20.1735 24.69
3 C 10.8635 8.64581 10.9483 25.2216 27.1772 -60.0412
4 C 10.9408 10.7867 8.68523 -7.69406 64.2677 -1.32748
5 C 8.80257 8.94165 13.132 -66.4766 -116.078 -66.0939
6 C 8.74901 10.8011 2.09441 3.78444 59.0226 27.2879
7 C 10.7899 8.6989 2.09663 43.6567 -36.7539 2.15926
8 C 10.9063 10.9259 13.0211 5.73276 -26.9167 -19.588
9 C 8.85781 8.69542 4.14172 -38.0041 14.568 99.1025
10 C 8.83106 10.9329 6.535 -42.3138 -14.4862 -1.97142
11 C 10.8397 8.56973 6.50661 26.8192 50.1317 -8.09886
12 C 11.0598 10.9111 4.29622 -59.6517 -30.6907 -3.75389
13 C 8.70701 -0.0843075 8.76382 -8.98653 75.3064 8.48442
14 C 8.45865 2.19051 11.0476 94.9747 3.6545 -32.26
15 C 10.8275 0.109621 10.876 17.3245 -54.4166 15.0789
16 C 10.8207 2.34807 8.76135 17.3414 -28.1568 1.21341
17 C 8.66682 0.0372785 12.9708 -5.65923 -22.8079 18.1277
18 C 8.61949 2.05319 2.11945 -7.89068 36.596 24.7328
19 C 10.9489 -0.137839 2.07852 -16.291 49.8807 27.3245
20 C 10.9812 2.04247 0.177995 -51.8852 24.5678 -59.2727
21 C 8.77476 -0.141246 4.32461 -19.2871 58.1491 1.23535
22 C 8.74343 2.28221 6.58681 22.3182 -42.9765 20.3163
23 C 10.7781 -0.0277618 6.43185 63.0107 -0.407147 71.5796
24 C 10.8609 2.12844 4.4669 10.5812 31.7938 -16.7029
25 C 8.67865 4.58774 8.71994 19.7637 -75.4442 22.4197
26 C 8.59521 6.59838 10.925 41.2263 4.54966 -6.22555
27 C 10.7621 4.38763 10.8421 22.3208 13.2861 37.66
28 C 10.9652 6.6925 8.66598 -33.2842 -71.5184 26.0278
29 C 8.62348 4.38537 -0.0735246 27.3603 -63.4363 66.5566
30 C 8.67989 6.48618 2.25998 -14.5786 -12.7227 -39.0814
31 C 10.7945 4.33234 2.21281 1.80505 -37.59 -26.7433
32 C 10.9913 6.42321 0.222212 -51.448 27.4163 -65.8981
33 C 8.76264 4.3738 4.35551 -27.2934 -23.5496 -6.3624
34 C 8.62284 6.40848 6.50348 31.0263 72.2568 -7.67651
35 C 10.9676 4.5509 6.48959 -42.7011 -92.0722 7.95358
36 C 10.9383 6.51948 4.3425 9.20537 -3.33457 -4.52482
37 C 13.0061 8.64141 8.70251 -2.87407 5.94966 -35.7158
38 C 13.0666 10.8448 10.8677 10.0763 15.6022 -29.1336
39 C 2.12865 8.62445 10.8992 9.77405 33.3369 -25.5502
40 C 2.21577 10.8513 8.66829 -27.0492 -5.76796 23.5444
41 C 13.0187 8.70926 12.9577 35.5158 -13.651 43.7393
42 C 13.0806 10.9898 2.24314 8.41369 -36.9183 -64.5893
43 C 2.19467 8.7667 2.21314 -41.2412 -20.3716 4.22324
44 C 2.08997 10.8558 0.00305836 36.687 5.88405 -21.3089
45 C 13.054 8.67087 4.20687 0.873311 5.7941 51.4305
46 C 13.1212 10.8685 6.41394 -11.9146 -4.55678 38.6761
47 C 2.18074 8.77002 6.58234 -12.6614 -57.497 -39.6313
48 C 2.12325 10.8062 4.21274 38.5898 55.5251 41.7216
49 C -0.0631085 0.138266 8.66927 17.9782 -52.6816 31.8113
50 C 0.020421 2.34011 10.859 3.50051 -56.1615 38.4821
51 C 2.12657 0.0682557 10.9552 5.50435 -13.5583 -57.4479
52 C 2.13005 2.2619 8.63309 46.3594 -27.4792 19.2292
53 C 0.00147227 0.00328913 -0.126698 36.9427 -3.49549 33.1577
54 C -0.100359 2.09605 2.32218 32.6357 27.9498 -44.5685
55 C 2.18444 0.07041 2.03941 29.4616 -25.8715 22.8874
56 C 2.26794 2.23535 -0.049636 -18.1904 1.38492 47.8785
57 C 0.190671 0.0610959 4.32819 -90.3041 -75.9833 -25.8372
58 C 0.00224398 2.12935 6.64299 -8.54246 12.6051 -25.6486
59 C 2.07022 -0.0692851 6.53473 23.0321 23.1034 -19.0394
60 C 2.06939 2.26348 4.45068 47.3636 -55.4898 -27.1634
61 C 0.0488693 4.38507 8.81108 -24.9896 5.71168 -32.9884
62 C 0.00562107 6.55381 11.0476 -23.1883 -60.4586 -79.1833
63 C 2.25388 4.30284 10.9479 -25.8655 35.4934 -26.5805
64 C 2.11561 6.59433 8.65088 30.7606 -18.0453 16.3135
65 C -0.10569 4.28242 0.0712599 44.5195 15.391 -11.1802
66 C 0.0449499 6.42869 2.34842 -20.418 11.5327 -78.602
67 C 2.18453 4.33464 2.21096 -20.9135 5.70777 -12.3223
68 C 2.19899 6.45892 -0.0412588 -21.585 35.7618 43.1946
69 C 0.128834 4.46361 4.49604 -67.9923 -73.3131 -78.8223
70 C -0.0947653 6.45558 6.61414 55.7196 10.2888 -36.1094
71 C 2.11079 4.25125 6.50468 39.9374 52.7696 27.3058
72 C 2.31696 6.51415 4.40517 -41.3232 11.2848 -21.128
73 C 4.40175 8.6806 8.61918 24.4192 -27.4161 55.047
74 C 4.3792 10.8779 10.9224 -23.3874 -21.6348 1.56521
75 C 6.62239 8.71883 11.0018 -40.2159 14.2179 -41.1863
76 C 6.43456 10.7183 8.63129 21.0906 58.0482 55.0548
77 C 4.24127 8.60452 0.0943083 40.3598 47.6951 -12.6883
78 C 4.35346 10.9383 2.04626 -6.95117 -31.0406 54.0163
79 C 6.62283 8.74865 2.26126 -24.9417 7.11618 -6.91401
80 C 6.57697 10.9644 0.0861915 -26.6712 -61.5184 -71.2492
81 C 4.43594 8.8077 4.40179 -33.0452 -28.041 -34.4303
82 C 4.31494 10.8996 6.61865 -16.8737 -12.2565 -27.8219
83 C 6.63362 8.87919 6.43248 -7.32167 -38.0528 -4.27878
84 C 6.57071 10.9524 4.33993 -14.2354 -21.345 21.1064
85 C 4.23868 -0.12287 8.7629 32.622 71.6789 -30.8217
86 C 4.30078 2.26973 10.8638 -24.9432 -63.1554 -37.2675
87 C 6.4355 0.0752616 10.7099 5.53097 -51.6713 44.7517
88 C 6.52119 2.30112 8.81581 8.00788 -11.9656 -36.2707
89 C 4.32986 0.000164251 -0.0677921 -15.2803 -21.8201 -22.1347
90 C 4.30185 2.12629 2.18275 20.1867 2.18266 4.26572
91 C 6.53337 -0.124247 2.1199 -7.65003 20.7242 21.6826
92 C 6.30875 2.13494 -0.113393 46.629 -29.5819 27.0413
93 C 4.29894 -0.0265457 4.45827 16.5184 7.02325 -28.1004
94 C 4.40948 2.16647 6.53333 1.34817 -26.083 29.9158
95 C 6.5911 -0.0751477 6.73813 -10.8547 42.717 -51.3699
96 C 6.54603 2.07319 4.35432 16.0025 -2.94389 33.7893
97 C 4.42407 4.41469 8.67962 -9.13955 2.27936 -11.4084
98 C 4.29357 6.5758 10.8054 40.1002 3.13816 26.4453
99 C 6.47061 4.45025 10.9761 14.2699 -18.4923 -48.1212
100 C 6.54943 6.73303 8.65 4.17069 -40.1201 4.41075
101 C 4.3759 4.41699 -0.0147541 -25.2411 -17.5057 -22.1035
102 C 4.49605 6.44615 2.27557 -59.6852 45.9488 -19.5661
103 C 6.31784 4.3072 2.06303 68.5722 -20.7202 40.5162
104 C 6.48156 6.67348 -0.0169078 41.2533 -52.1354 31.3074
105 C 4.3126 4.30761 4.45598 32.1089 -10.9119 -13.2378
106 C 4.32912 6.57602 6.43382 52.1502 -20.2118 40.1798
107 C 6.70415 4.32242 6.56807 -41.3977 34.1408 -23.9333
108 C 6.56052 6.5498 4.37322 -14.1797 -7.12201 -39.986
109 Si 11.9996 9.75012 11.8495 -18.1144 20.1131 46.5753
110 Si 11.9694 11.9811 9.82476 -3.55166 15.3944 -20.4671
111 Si 9.8461 9.80321 9.75642 -10.0939 -14.0636 12.0109
112 Si 9.68576 11.9154 11.9918 53.8004 44.1212 -35.6998
113 Si 11.9174 9.72568 3.03956 46.5794 39.4151 87.6591
114 Si 12.1088 11.9214 0.943365 -44.5313 29.1677 47.6243
115 Si 9.84559 9.839 1.04337 35.0665 20.1155 28.4603
116 Si 9.84551 11.9685 3.18953 18.9819 -37.0728 9.92732
117 Si 11.9974 9.82276 7.54147 -11.7923 -39.663 2.44558
118 Si 12.007 11.96 5.45855 9.85059 15.1198 -34.1999
119 Si 9.85887 9.80534 5.47047 15.5934 -11.5852 -42.1164
120 Si 9.78142 12.0504 7.65863 25.013 -40.8921 -5.22519
121 Si 11.9831 1.03681 11.9403 -1.53326 52.0908 9.32824
122 Si 11.9535 3.33616 9.86949 -4.15139 20.3942 -14.2236
123 Si 9.83777 1.28467 9.94129 -62.6713 -44.0391 -32.8018
124 Si 9.80297 3.20443 12.1404 -19.5954 6.57745 -50.5127
125 Si 11.9554 1.04996 3.48473 3.97398 -13.5701 -89.8918
126 Si 11.9361 3.22993 1.15017 6.77746 -20.7358 28.497
127 Si 9.7012 1.04799 1.10884 59.4051 -26.2552 -18.9667
128 Si 9.75587 3.197 3.23341 -7.85407 0.491568 34.4783
129 Si 11.8374 1.12984 7.70091 17.6354 7.25876 -36.3579
130 Si 12.1398 3.29278 5.54689 -66.2132 9.71915 -19.5362
131 Si 9.78162 1.04638 5.48199 -27.1103 31.5588 -22.7635
132 Si 9.79931 3.42847 7.68281 2.48915 -0.324563 -30.213
133 Si 11.9261 5.39071 12.0293 -7.01889 10.492 -4.50279
134 Si 12.0768 7.56537 9.82761 -52.4577 15.8307 17.2406
135 Si 9.70909 5.65933 9.7263 41.709 -27.2775 53.6146
136 Si 9.80513 7.69476 12.0008 -20.7417 -44.9937 43.4438
137 Si 11.9328 5.30901 3.17854 26.093 42.8827 86.3235
138 Si 12.1003 7.59761 1.12705 -47.2992 -5.13014 -0.524327
139 Si 9.66767 5.33491 1.07927 38.3295 46.6351 28.4768
140 Si 9.82135 7.49697 3.28112 18.709 29.0017 -40.1024
141 Si 11.9306 5.39225 7.65074 42.0771 46.8481 41.2136
142 Si 12.0716 7.59209 5.50015 -39.5173 5.89705 -54.494
143 Si 9.8524 5.5503 5.43615 -27.9187 -51.3499 -16.1103
144 Si 9.77322 7.49539 7.55951 -7.05859 55.7339 1.0493
145 Si 3.22807 9.73056 12.0264 -6.5239 10.5052 -17.9313
146 Si 3.24973 11.9742 9.85348 -33.1041 -29.5684 9.19158
147 Si 0.986255 9.69911 9.61667 61.5563 52.7407 88.0595
148 Si 1.12083 11.9687 11.953 -24.8887 -11.0164 -20.3013
149 Si 3.29022 9.81611 3.22789 8.74519 2.50631 1.41411
150 Si 3.25107 11.9241 0.959641 4.78353 32.1286 20.3848
151 Si 1.06405 9.82638 1.06881 -13.3745 -21.3261 18.3196
152 Si 1.22592 12.076 3.15999 -51.9473 -33.5405 27.0605
153 Si 3.28109 9.61958 7.71369 -21.2222 104.615 -47.496
154 Si 3.20777 12.0016 5.47762 -4.42546 -51.1961 -3.47591
155 Si 1.16032 9.78227 5.37724 -35.5817 -11.6746 -8.7535
156 Si 1.06058 11.9533 7.60725 -10.8942 -1.08259 17.1322
157 Si 3.15259 1.16269 11.9388 76.2069 -24.8533 -5.49104
158 Si 3.29881 3.29543 9.73426 -13.5643 15.9013 0.74895
159 Si 1.11105 1.25225 9.74339 -31.8239 -45.4641 23.954
160 Si 1.14904 3.26286 12.1195 -45.5809 35.2426 -75.0366
161 Si 3.24934 1.04991 3.29245 -6.61562 29.8318 -6.73433
162 Si 3.27868 3.35863 1.07738 13.0811 -35.1153 17.5559
163 Si 1.2035 1.14423 0.977433 -70.9863 -9.87235 36.1396
164 Si 1.01784 3.21535 3.2847 26.0688 34.0637 14.0753
165 Si 3.1738 0.981171 7.54923 28.5597 40.6988 39.7896
166 Si 3.269 3.15606 5.57115 -12.9621 46.1648 -51.2195
167 Si 1.05098 1.02754 5.3853 41.0751 68.6502 91.7759
168 Si 1.07261 3.30873 7.63885 -21.9356 -12.4396 2.5035
169 Si 3.27572 5.4939 11.9583 20.7231 -21.9494 -12.5937
170 Si 3.27178 7.68085 9.7663 -10.6739 -23.046 -15.071
171 Si 1.17376 5.49678 9.77644 -26.4537 -26.4024 45.2248
172 Si 1.11094 7.51467 11.9439 11.9782 60.9155 46.1742
173 Si 3.2811 5.3813 3.30141 23.4732 3.27828 1.91728
174 Si 3.17523 7.66968 1.24294 47.2974 -70.6526 -46.5487
175 Si 1.01649 5.48183 1.04221 32.2036 -39.7033 35.9092
176 Si 1.07687 7.49826 3.304 43.0215 50.9759 10.1946
177 Si 3.22611 5.44591 7.62201 21.4984 8.4179 -24.9423
178 Si 3.35204 7.6641 5.40409 -32.9182 12.9238 18.0406
179 Si 1.1709 5.46957 5.428 2.62991 13.6973 49.8061
180 Si 0.951186 7.54394 7.60441 52.7271 37.6118 -6.32292
181 Si 7.68417 9.83877 11.9342 -4.35996 11.3782 43.4288
182 Si 7.51506 11.9488 9.78451 20.8678 -0.560055 -33.9736
183 Si 5.40596 9.69715 9.9029 15.5419 20.8263 -46.1261
184 Si 5.51239 11.9411 11.9221 -36.3631 20.3574 17.0792
185 Si 7.74769 9.84858 3.31609 -37.7498 -0.43281 -33.0371
186 Si 7.70638 11.9393 0.989975 -17.1493 17.8846 62.7802
187 Si 5.46599 9.74119 1.13809 0.669999 27.2692 -17.7822
188 Si 5.33963 11.9178 3.3382 40.1283 21.184 -45.4469
189 Si 7.69372 9.84539 7.6344 -2.74191 -4.67419 -33.4629
190 Si 7.64938 12.0114 5.45349 2.96274 -24.3032 22.904
191 Si 5.35707 9.87351 5.49016 62.0375 21.6458 -7.7987
192 Si 5.36642 11.9617 7.66335 22.6142 -22.6582 14.4732
193 Si 7.44854 0.958391 11.9123 17.6716 58.7361 19.2684
194 Si 7.69892 3.32241 9.83705 -51.184 32.2466 18.5665
195 Si 5.37511 1.16045 9.7495 -18.4533 -7.0639 -6.09765
196 Si 5.32664 3.20707 11.8772 45.1612 81.636 47.8871
197 Si 7.58956 0.963455 3.2633 4.36373 4.51573 -10.2463
198 Si 7.45453 3.1472 0.982655 9.69642 26.2807 24.7061
199 Si 5.40472 0.9286 1.02654 -3.10411 58.3728 31.7375
200 Si 5.45199 3.1419 3.39285 -39.4016 36.3617 -60.505
201 Si 7.67559 1.26207 7.76482 -3.98021 -65.6257 -14.2429
202 Si 7.69926 3.19715 5.49636 -15.0149 40.1643 -49.9079
203 Si 5.48834 0.989701 5.54434 -0.624905 14.52 -9.6107
204 Si 5.57118 3.34822 7.54449 -52.4994 -30.3174 49.1735
205 Si 7.64933 5.41338 12.0394 -69.321 76.1335 -50.233
206 Si 7.60426 7.71048 9.78878 22.7893 0.54045 6.5243
207 Si 5.51606 5.58495 9.7013 -32.9674 -24.4906 41.8211
208 Si 5.45659 7.73159 12.0391 -31.9514 -35.3031 -26.5137
209 Si 7.47246 5.36464 3.20876 46.684 -2.07663 16.3446
210 Si 7.61542 7.65926 1.18655 26.8506 1.97926 -39.8191
211 Si 5.43467 5.48814 0.990366 -2.88583 3.56928 32.3809
212 Si 5.50408 7.69372 3.30504 -11.0862 -24.3582 -3.30662
213 Si 7.59807 5.49259 7.71104 -16.0609 22.3948 -61.0143
214 Si 7.59255 7.68487 5.25431 56.2579 3.0823 66.5503
215 Si 5.57398 5.46078 5.42272 -56.2118 -26.8538 23.4601
216 Si 5.60528 7.72348 7.42945 -59.9906 -15.2612 33.1892
