Data file for H2O system

   96 atoms
   2 atom types

   0.000000000    8.6091309 xlo xhi 
   0.000000000    8.6091309 ylo yhi
   0.000000000    8.6091309  zlo zhi

Masses

   1  15.999
   2  1.00784

Atoms

1	1	2.77746	1.36959	6.31692
2	2	3.34223	2.07637	5.70246
3	2	4.36127	3.66403	7.07424
4	1	1.27482	3.65802	1.76021
5	2	2.1937	3.49544	1.46884
6	2	1.90093	5.74377	4.52894
7	1	0.0678	8.84794	5.03623
8	2	0.37366	8.84172	5.91653
9	2	5.13994	8.03457	7.10136
10	1	2.05636	7.94766	-0.1067
11	2	2.58703	8.69404	8.18211
12	2	2.45455	6.38359	7.46584
13	1	5.25688	5.43499	8.40624
14	2	6.13849	5.87113	-0.0171
15	2	4.03301	6.72046	1.86661
16	1	4.78182	3.56323	4.28778
17	2	5.51986	2.97744	4.7613
18	2	5.02529	3.39267	3.26646
19	1	3.20141	7.94822	4.68157
20	2	3.75298	8.75315	4.44957
21	2	3.67667	7.03631	4.62568
22	1	6.20848	7.95143	3.61176
23	2	5.99162	8.66871	2.98513
24	2	2.11282	7.99225	0.82625
25	1	6.01189	2.69138	1.18984
26	2	6.71176	1.89924	1.84231
27	2	5.22233	2.45516	0.71342
28	1	0.06967	1.29711	0.7868
29	2	0.1383	1.04929	-0.1064
30	2	1.0238	1.10155	2.9965
31	1	5.20246	3.27497	7.16634
32	2	8.41046	2.78287	5.5297
33	2	5.51922	3.72561	8.11506
34	1	2.74209	3.82835	6.38198
35	2	2.00285	3.42232	6.21743
36	2	3.19528	3.61351	5.61662
37	1	2.78362	5.41759	4.35057
38	2	2.81769	4.56962	3.92615
39	2	3.90001	6.84016	6.65503
40	1	2.93108	2.96678	0.02599
41	2	8.11305	7.92763	4.99786
42	2	2.29624	2.28829	8.36188
43	1	5.64583	5.68495	5.77431
44	2	7.16016	3.26524	-0.0938
45	2	5.82686	5.5645	4.72488
46	1	7.88223	3.90853	8.21745
47	2	2.52446	3.72508	0.1555
48	2	8.59701	3.54975	0.21768
49	1	7.25661	1.33532	7.37546
50	2	6.76006	1.56192	8.09166
51	2	0.7174	0.51174	1.15061
52	1	3.82273	0.99411	1.48552
53	2	3.42405	0.88317	0.62908
54	2	3.12503	0.89988	2.32523
55	1	0.87698	3.31949	4.31921
56	2	1.06321	4.13635	4.87771
57	2	0.33853	3.75254	3.50199
58	1	7.58821	3.24968	5.34387
59	2	7.28259	3.4441	6.20403
60	2	2.48757	0.66334	5.67278
61	1	8.33719	5.8547	5.06958
62	2	8.10236	6.1624	5.88337
63	2	8.24793	4.92441	4.74931
64	1	8.08509	7.19472	2.05346
65	2	1.57898	4.62809	1.98578
66	2	0.09536	7.93117	2.4997
67	1	1.80524	0.60605	2.77605
68	2	1.90693	8.55437	3.36108
69	2	6.73543	7.38594	3.08473
70	1	7.40901	1.84216	3.08765
71	2	8.151	1.36491	3.74448
72	2	7.71881	2.62179	3.34788
73	1	0.84461	5.85749	7.89696
74	2	0.49706	6.62905	7.38172
75	2	0.10073	5.07759	7.90379
76	1	5.1645	1.02225	5.57621
77	2	6.23217	5.00619	6.15039
78	2	6.08192	0.72664	5.2906
79	1	4.56022	8.19578	7.79282
80	2	5.31968	1.53094	6.30848
81	2	4.54562	7.39545	0.02903
82	1	7.56768	7.26681	7.53817
83	2	7.21677	0.35462	7.41477
84	2	6.8142	7.25897	6.77988
85	1	3.94293	4.38274	1.85359
86	2	4.38895	4.96664	2.40654
87	2	4.63175	4.79935	1.05303
88	1	6.92721	5.1298	3.03946
89	2	7.16291	6.06266	3.16966
90	2	6.17593	5.06218	2.41809
91	1	4.7129	7.17205	1.47305
92	2	4.63667	8.24944	1.80285
93	2	8.1419	7.29594	0.8324
94	1	3.14752	6.27909	6.91626
95	2	3.05188	5.70797	6.14843
96	2	5.01226	5.66002	7.49608
