LAMMPS (29 Aug 2024 - Update 1)
########################################
########################################
# HN3 at 3000.0 K
########################################
########################################



##########################################
# USER-SPECIFIED VARIABLES
##########################################

variable tstep               equal  0.2                                        # timestep in fs
variable run_steps           equal  100                                        # Number of steps to run
variable temperature         equal  3000                                       # Temperature (K)

variable io_freq             equal  1                                          # Frequency of dumping trajectory (steps)

variable data_file           string data.in	                               # Data file for initial structure
variable param_file          string ../../../../serial_interface/tests/force_fields/published_params.HN3.2+3+4b.Tersoff.special.offsets.txt


########################################
# GENERAL CONTROLS
########################################

units           real                          # Required for CHIMES pair style
newton          on                            # Required for CHIMES pair style
atom_style      atomic                        # Required for CHIMES pair style
atom_modify     sort 0 0.0                    # Required for CHIMES pair style
atom_modify     map array                     # Required for CHIMES pair style

neighbor        1.0 bin
neigh_modify    delay 0 every 1 check yes     # Required for CHIMES pair style


########################################
# INITIALIZATION CONTROLS
########################################

read_data	data.in
Reading data file ...
  orthogonal box = (0 0 0) to (16.5 16.5 16.5)
  3 by 3 by 4 MPI processor grid
  reading atoms ...
  512 atoms
  read_data CPU = 0.009 seconds
velocity	all create ${temperature} 1111 dist gaussian mom yes rot yes loop all
velocity	all create 3000 1111 dist gaussian mom yes rot yes loop all


########################################
# FORCE FIELD CONTROLS
########################################

pair_style      chimesFF
pair_coeff      * * ${param_file}
pair_coeff      * * ../../../../serial_interface/tests/force_fields/published_params.HN3.2+3+4b.Tersoff.special.offsets.txt


########################################
# RUN, DUMP, AND THERMO CONTROLS
########################################

##### Set the ensemble

variable temp_damp  equal  v_tstep*100.0	# Temperature damping coefficient

fix             1 all nvt temp ${temperature} ${temperature} ${temp_damp}
fix             1 all nvt temp 3000 ${temperature} ${temp_damp}
fix             1 all nvt temp 3000 3000 ${temp_damp}
fix             1 all nvt temp 3000 3000 20


##### Define thermo output

thermo_style    custom step time ke pe temp press etotal econserve  # econserve replaces fix_modify
thermo_modify   line one format float %20.5f flush yes
thermo          1

##### Run the simulation

timestep        ${tstep}
timestep        0.2
run             ${run_steps}
run             100

CITE-CITE-CITE-CITE-CITE-CITE-CITE-CITE-CITE-CITE-CITE-CITE-CITE

Your simulation uses code contributions which should be cited:

- Type Label Framework: https://doi.org/10.1021/acs.jpcb.3c08419

@Article{Gissinger24,
 author = {Jacob R. Gissinger, Ilia Nikiforov, Yaser Afshar, Brendon Waters, Moon-ki Choi, Daniel S. Karls, Alexander Stukowski, Wonpil Im, Hendrik Heinz, Axel Kohlmeyer, and Ellad B. Tadmor},
 title = {Type Label Framework for Bonded Force Fields in LAMMPS},
 journal = {J. Phys. Chem. B},
 year =    2024,
 volume =  128,
 number =  13,
 pages =   {3282–-3297}
}

CITE-CITE-CITE-CITE-CITE-CITE-CITE-CITE-CITE-CITE-CITE-CITE-CITE

Generated 0 of 1 mixed pair_coeff terms from geometric mixing rule
Neighbor list info ...
  update: every = 1 steps, delay = 0 steps, check = yes
  max neighbors/atom: 2000, page size: 100000
  master list distance cutoff = 9
  ghost atom cutoff = 9
  binsize = 4.5, bins = 4 4 4
  1 neighbor lists, perpetual/occasional/extra = 1 0 0
  (1) pair chimesFF, perpetual
      attributes: full, newton on, ghost
      pair build: full/bin/ghost
      stencil: full/ghost/bin/3d
      bin: standard
Per MPI rank memory allocation (min/avg/max) = 3.765 | 3.97 | 4.153 Mbytes
   Step          Time          KinEng         PotEng          Temp          Press          TotEng       Econserve   
         0               0.00000           4569.58181         -76770.45621           3000.00000         264247.70270         -72200.87440         -72200.87440
         1               0.20000           4555.30932         -76755.99132           2990.62989         263669.42663         -72200.68200         -72200.68236
         2               0.40000           4545.51848         -76746.02812           2984.20206         262926.31509         -72200.50964         -72200.51308
         3               0.60000           4542.61493         -76743.04483           2982.29584         261947.16115         -72200.42989         -72200.44103
         4               0.80000           4547.54644         -76748.01462           2985.53345         260728.93154         -72200.46818         -72200.49219
         5               1.00000           4559.43672         -76760.02240           2993.33960         259318.21531         -72200.58568         -72200.62682
         6               1.20000           4576.10586         -76776.82486           3004.28314         257798.57408         -72200.71900         -72200.77922
         7               1.40000           4594.93747         -76795.77034           3016.64638         256257.18298         -72200.83288         -72200.91092
         8               1.60000           4613.52653         -76814.44191           3028.85038         254772.38900         -72200.91538         -72201.00621
         9               1.80000           4629.97781         -76830.94982           3039.65090         253405.36196         -72200.97201         -72201.06685
        10               2.00000           4642.91968         -76843.93395           3048.14743         252191.17069         -72201.01428         -72201.10097
        11               2.20000           4651.42512         -76852.47688           3053.73138         251146.54411         -72201.05176         -72201.11547
        12               2.40000           4654.94601         -76856.03433           3056.04290         250299.94549         -72201.08831         -72201.11244
        13               2.60000           4653.26659         -76854.39118           3054.94033         249664.62673         -72201.12458         -72201.09180
        14               2.80000           4646.47539         -76847.63815           3050.48181         249238.91004         -72201.16276         -72201.05613
        15               3.00000           4634.94190         -76836.14362           3042.90989         249023.84421         -72201.20172         -72201.00579
        16               3.20000           4619.29755         -76820.53677           3032.63914         249028.18986         -72201.23922         -72200.94096
        17               3.40000           4600.40085         -76801.68039           3020.23317         249240.78330         -72201.27954         -72200.86922
        18               3.60000           4579.27722         -76780.60117           3006.36519         249631.66470         -72201.32395         -72200.79572
        19               3.80000           4557.02467         -76758.39540           2991.75605         250179.50164         -72201.37073         -72200.72302
        20               4.00000           4534.69635         -76736.12694           2977.09717         250864.05597         -72201.43058         -72200.66624
        21               4.20000           4513.20529         -76714.70119           2962.98796         251652.10464         -72201.49590         -72200.62214
        22               4.40000           4493.25617         -76694.82461           2949.89106         252511.50109         -72201.56844         -72200.59662
        23               4.60000           4475.31390         -76676.95150           2938.11169         253432.99410         -72201.63760         -72200.58286
        24               4.80000           4459.64609         -76661.34542           2927.82553         254388.44134         -72201.69933         -72200.58018
        25               5.00000           4446.38922         -76648.13190           2919.12219         255368.95158         -72201.74269         -72200.58058
        26               5.20000           4435.60693         -76637.37171           2912.04346         256353.01211         -72201.76477         -72200.58364
        27               5.40000           4427.32986         -76629.09178           2906.60943         257326.55501         -72201.76192         -72200.58769
        28               5.60000           4421.56809         -76623.30199           2902.82675         258282.68868         -72201.73390         -72200.59412
        29               5.80000           4418.29767         -76619.97596           2900.67966         259194.80192         -72201.67829         -72200.60164
        30               6.00000           4417.46104         -76619.05430           2900.13040         260054.83635         -72201.59326         -72200.60914
        31               6.20000           4418.97138         -76620.45259           2901.12196         260842.07540         -72201.48121         -72200.61932
        32               6.40000           4422.67644         -76624.02076           2903.55439         261544.05165         -72201.34431         -72200.63425
        33               6.60000           4428.34342         -76629.52369           2907.27485         262153.97714         -72201.18027         -72200.65116
        34               6.80000           4435.68506         -76636.67258           2912.09475         262670.95805         -72200.98752         -72200.66765
        35               7.00000           4444.40911         -76645.17222           2917.82222         263100.44241         -72200.76310         -72200.67963
        36               7.20000           4454.25015         -76654.76345           2924.28301         263460.31671         -72200.51330         -72200.69197
        37               7.40000           4464.93309         -76665.17614           2931.29653         263759.61734         -72200.24304         -72200.70800
        38               7.60000           4476.11575         -76676.07732           2938.63811         264006.67809         -72199.96156         -72200.73511
        39               7.80000           4487.33257         -76687.00139           2946.00213         264199.58750         -72199.66882         -72200.77132
        40               8.00000           4497.98317         -76697.34900           2952.99440         264354.91377         -72199.36584         -72200.81568
        41               8.20000           4507.40762         -76706.44946           2959.18170         264469.36645         -72199.04184         -72200.85543
        42               8.40000           4515.01719         -76713.70874           2964.17750         264553.29613         -72198.69155         -72200.88350
        43               8.60000           4520.45129         -76718.75643           2967.74507         264607.63922         -72198.30514         -72200.88854
        44               8.80000           4523.69918         -76721.58069           2969.87736         264634.75575         -72197.88152         -72200.86833
        45               9.00000           4525.14036         -76722.56354           2970.82351         264623.92671         -72197.42318         -72200.82465
        46               9.20000           4525.47554         -76722.42567           2971.04356         264566.67236         -72196.95013         -72200.77717
        47               9.40000           4525.54333         -76722.01128           2971.08807         264437.95184         -72196.46796         -72200.73144
        48               9.60000           4526.13232         -76722.12037           2971.47475         264209.40995         -72195.98805         -72200.69893
        49               9.80000           4527.81071         -76723.33279           2972.57664         263898.66711         -72195.52207         -72200.69137
        50              10.00000           4530.77978         -76725.85532           2974.52588         263485.41115         -72195.07554         -72200.71417
        51              10.20000           4534.80038         -76729.43834           2977.16546         262972.62949         -72194.63796         -72200.75650
        52              10.40000           4539.29641         -76733.49013           2980.11718         262390.48705         -72194.19372         -72200.80217
        53              10.60000           4543.58486         -76737.31723           2982.93261         261760.96041         -72193.73237         -72200.84003
        54              10.80000           4547.08689         -76740.32972           2985.23174         261097.51227         -72193.24283         -72200.85818
        55              11.00000           4549.46744         -76742.19757           2986.79461         260411.25798         -72192.73013         -72200.86101
        56              11.20000           4550.62999         -76742.82924           2987.55784         259717.84455         -72192.19925         -72200.85300
        57              11.40000           4550.64446         -76742.30193           2987.56734         259016.35973         -72191.65747         -72200.84117
        58              11.60000           4549.67775         -76740.78272           2986.93269         258301.84726         -72191.10497         -72200.82568
        59              11.80000           4547.93986         -76738.48614           2985.79174         257587.09849         -72190.54628         -72200.81126
        60              12.00000           4545.66386         -76735.64308           2984.29750         256866.08567         -72189.97922         -72200.79610
        61              12.20000           4543.08398         -76732.48955           2982.60377         256150.31627         -72189.40556         -72200.78248
        62              12.40000           4540.41265         -76729.23720           2980.85000         255436.46957         -72188.82455         -72200.77025
        63              12.60000           4537.85137         -76726.08219           2979.16849         254727.12778         -72188.23082         -72200.75470
        64              12.80000           4535.63258         -76723.25118           2977.71181         254022.40846         -72187.61861         -72200.73075
        65              13.00000           4534.05824         -76721.04787           2976.67824         253329.26112         -72186.98963         -72200.70072
        66              13.20000           4533.44656         -76719.80559           2976.27666         252658.30993         -72186.35903         -72200.68035
        67              13.40000           4533.95870         -76719.69919           2976.61289         252022.93596         -72185.74050         -72200.68374
        68              13.60000           4535.38405         -76720.52854           2977.54866         251438.40345         -72185.14448         -72200.72155
        69              13.80000           4537.01967         -76721.58605           2978.62246         250938.79081         -72184.56638         -72200.78918
        70              14.00000           4537.72136         -76721.71719           2979.08313         250556.51359         -72183.99583         -72200.87610
        71              14.20000           4536.13927         -76719.54269           2978.04447         250319.97759         -72183.40341         -72200.95272
        72              14.40000           4531.07184         -76713.84077           2974.71762         250244.70537         -72182.76893         -72200.99897
        73              14.60000           4521.78063         -76703.86105           2968.61780         250329.96115         -72182.08041         -72201.00346
        74              14.80000           4508.17791         -76689.50570           2959.68741         250576.66001         -72181.32779         -72200.95747
        75              15.00000           4490.89745         -76671.41853           2948.34252         250959.47618         -72180.52108         -72200.87322
        76              15.20000           4471.17456         -76650.85065           2935.39414         251451.67324         -72179.67609         -72200.76950
        77              15.40000           4450.50923         -76629.32921           2921.82704         252010.27796         -72178.81998         -72200.67713
        78              15.60000           4430.25355         -76608.22545           2908.52888         252604.20772         -72177.97190         -72200.61931
        79              15.80000           4411.27627         -76588.41157           2896.07001         253231.36881         -72177.13529         -72200.60368
        80              16.00000           4393.86258         -76570.15628           2884.63766         253890.69900         -72176.29370         -72200.61783
        81              16.20000           4377.87375         -76553.29626           2874.14074         254582.92331         -72175.42250         -72200.64098
        82              16.40000           4363.02942         -76537.53058           2864.39522         255307.57992         -72174.50116         -72200.65612
        83              16.60000           4349.17551         -76522.69122           2855.29991         256074.93495         -72173.51572         -72200.65266
        84              16.80000           4336.39952         -76508.86918           2846.91228         256871.79712         -72172.46966         -72200.63722
        85              17.00000           4324.97529         -76496.34469           2839.41210         257672.64891         -72171.36940         -72200.61931
        86              17.20000           4315.25116         -76485.46887           2833.02806         258439.40760         -72170.21771         -72200.60464
        87              17.40000           4307.51581         -76476.53709           2827.94969         259145.17154         -72169.02128         -72200.60270
        88              17.60000           4301.89767         -76469.67309           2824.26129         259784.95008         -72167.77543         -72200.61140
        89              17.80000           4298.36205         -76464.83686           2821.94011         260357.17159         -72166.47480         -72200.62770
        90              18.00000           4296.78129         -76461.88905           2820.90231         260873.39221         -72165.10777         -72200.64198
        91              18.20000           4297.01666         -76460.68729           2821.05683         261338.30770         -72163.67063         -72200.65229
        92              18.40000           4298.96626         -76461.12892           2822.33677         261751.36891         -72162.16266         -72200.65934
        93              18.60000           4302.55357         -76463.13920           2824.69190         262117.73616         -72160.58562         -72200.66609
        94              18.80000           4307.66719         -76466.61118           2828.04907         262424.87955         -72158.94399         -72200.67795
        95              19.00000           4314.11187         -76471.34759           2832.28010         262680.61115         -72157.23572         -72200.69357
        96              19.20000           4321.61410         -76477.07090           2837.20543         262900.23540         -72155.45680         -72200.70933
        97              19.40000           4329.84312         -76483.45274           2842.60790         263082.35222         -72153.60962         -72200.72777
        98              19.60000           4338.41652         -76490.10958           2848.23647         263235.78794         -72151.69306         -72200.74764
        99              19.80000           4346.88275         -76496.59433           2853.79468         263369.23026         -72149.71158         -72200.77303
       100              20.00000           4354.70349         -76502.36657           2858.92911         263483.68487         -72147.66309         -72200.80127
Loop time of 43.2117 on 36 procs for 100 steps with 512 atoms

Performance: 0.040 ns/day, 600.162 hours/ns, 2.314 timesteps/s, 1.185 katom-step/s
99.7% CPU use with 36 MPI tasks x no OpenMP threads

MPI task timing breakdown:
Section |  min time  |  avg time  |  max time  |%varavg| %total
---------------------------------------------------------------
Pair    | 4.8467     | 17.933     | 43.034     | 209.6 | 41.50
Neigh   | 0.047687   | 0.050094   | 0.05256    |   0.7 |  0.12
Comm    | 0.12356    | 25.223     | 38.31      | 176.8 | 58.37
Output  | 0.0021941  | 0.0023212  | 0.0038921  |   0.6 |  0.01
Modify  | 0.0010512  | 0.0012225  | 0.0013478  |   0.2 |  0.00
Other   |            | 0.002024   |            |       |  0.00

Nlocal:        14.2222 ave          20 max           7 min
Histogram: 2 0 3 3 3 8 9 4 2 2
Nghost:        1381.11 ave        1409 max        1348 min
Histogram: 1 3 4 4 6 4 2 4 3 5
Neighs:              0 ave           0 max           0 min
Histogram: 36 0 0 0 0 0 0 0 0 0
FullNghs:      4938.39 ave        6883 max        2475 min
Histogram: 2 0 4 2 3 10 5 6 2 2

Total # of neighbors = 177782
Ave neighs/atom = 347.23047
Neighbor list builds = 7
Dangerous builds = 0


Total wall time: 0:00:43
