LAMMPS (29 Aug 2024 - Update 1)
Reading data file ...
  orthogonal box = (0 0 0) to (16.5 16.5 16.5)
  3 by 3 by 4 MPI processor grid
  reading atoms ...
  512 atoms
  read_data CPU = 0.009 seconds
chimesFF: 
chimesFF: 01000011011010001001001010011010100010101010011 0100010101101110110011101101001011011101100101  
chimesFF: 
chimesFF:       _____  _      _____  __  __  ______   _____   ______                _                      
chimesFF:      / ____|| |    |_   _||  \/  ||  ____| / ____| |  ____|              (_)                    
chimesFF:     | |     | |__    | |  | \  / || |__   | (___   | |__    _ __    __ _  _  _ __    ___        
chimesFF:     | |     | '_ \   | |  | |\/| ||  __|   \___ \  |  __|  | '_ \  / _` || || '_ \  / _ \ 
chimesFF:     | |____ | | | | _| |_ | |  | || |____  ____) | | |____ | | | || (_| || || | | ||  __/        
chimesFF:      \_____||_| |_||_____||_|  |_||______||_____/  |______||_| |_| \__, ||_||_| |_| \___|     
chimesFF:                                                                     __/ |                        
chimesFF:                                                                    |___/                         
chimesFF: 
chimesFF:                      Copyright (C) 2020 R.K. Lindsey, L.E. Fried, N. Goldman                     
chimesFF: 
chimesFF: 01000011011010001001001010011010100010101010011 0100010101101110110011101101001011011101100101   
chimesFF: 

************************* WARNING (pair_style chimesFF) ************************
Assuming n-body interactions have longer cutoffs than all (n+1)-body interactions
************************* WARNING (pair_style chimesFF) ************************

chimesFF: Reading parameters from file: ../../../../serial_interface/tests/force_fields/published_params.HN3.2+3+4b.Tersoff.special.offsets.txt
chimesFF: Using respective 2, 3, and 4-body orders of: 12 8 4
chimesFF: Note: Ignoring polynomial domain; assuming [-1,1]
chimesFF: Will consider 2 atom types:
chimesFF: 	0 N
chimesFF: 	1 H
chimesFF: Will consider 3 atom pair types
chimesFF: Detected version 1 pair specification (with S_DELTA)
chimesFF: 	0 N N
chimesFF: 	1 H H
chimesFF: 	2 N H
chimesFF: Read the following pair type information:
chimesFF: 	N N r_cut_in: 0.79300 r_cut_out: 8.00000 MORSE 1.15000
chimesFF: 	H H r_cut_in: 0.45100 r_cut_out: 8.00000 MORSE 0.80000
chimesFF: 	N H r_cut_in: 0.66600 r_cut_out: 8.00000 MORSE 1.00000
chimesFF: Will use cutoff style TERSOFF
 0.50000
chimesFF: Will use single atom energy offsets: 
chimesFF: 	1 N -126.82870
chimesFF: 	2 H -59.04023
chimesFF: Will use penalty distance: 0.02000
chimesFF: Will use penalty scaling: 1000000.00000
chimesFF: Read 2B parameters for pair: 0 N N
chimesFF: 	0 17.34101
chimesFF: 	1 57.77412
chimesFF: 	2 76.22007
chimesFF: 	3 40.59795
chimesFF: 	4 -3.09095
chimesFF: 	5 -9.56832
chimesFF: 	6 -1.39845
chimesFF: 	7 -0.28488
chimesFF: 	8 -0.21732
chimesFF: 	9 0.15689
chimesFF: 	10 0.05672
chimesFF: 	11 0.21486
chimesFF: Read 2B parameters for pair: 1 H H
chimesFF: 	0 12.50579
chimesFF: 	1 28.82912
chimesFF: 	2 24.29593
chimesFF: 	3 9.35118
chimesFF: 	4 0.80954
chimesFF: 	5 1.10876
chimesFF: 	6 2.30883
chimesFF: 	7 -0.17154
chimesFF: 	8 0.03544
chimesFF: 	9 0.50123
chimesFF: 	10 -0.05626
chimesFF: 	11 0.20387
chimesFF: Read 2B parameters for pair: 2 N H
chimesFF: 	0 1.70148
chimesFF: 	1 10.54246
chimesFF: 	2 13.62490
chimesFF: 	3 -1.95162
chimesFF: 	4 -11.23382
chimesFF: 	5 -4.30822
chimesFF: 	6 -0.18965
chimesFF: 	7 -0.92108
chimesFF: 	8 -0.15935
chimesFF: 	9 0.26744
chimesFF: 	10 0.03469
chimesFF: 	11 0.00208
chimesFF: Built the following 2-body pair "slow" map:
chimesFF: 	1 HH(i: 0)
chimesFF: 	2 HN(i: 1)
chimesFF: 	2 NH(i: 2)
chimesFF: 	0 NN(i: 3)
chimesFF: Built the following 2-body pair "fast" map:
chimesFF: 	NN: 0 0
chimesFF: 	NH: 1 2
chimesFF: 	HN: 2 2
chimesFF: 	HH: 3 1
chimesFF: Read 3B parameters for triplet: 0 N N N
chimesFF: 	0 1 1 0.39720
chimesFF: 	1 0 1 0.39720
chimesFF: 	1 1 0 0.39720
chimesFF: 	0 1 2 -4.84645
chimesFF: 	1 0 2 -4.84645
chimesFF: 	0 2 1 -4.84645
chimesFF: 	2 0 1 -4.84645
chimesFF: 	1 2 0 -4.84645
chimesFF: 	2 1 0 -4.84645
chimesFF: 	0 1 3 -16.73805
chimesFF: 	1 0 3 -16.73805
chimesFF: 	0 3 1 -16.73805
chimesFF: 	3 0 1 -16.73805
chimesFF: 	1 3 0 -16.73805
chimesFF: 	3 1 0 -16.73805
chimesFF: 	0 1 4 -11.90359
chimesFF: 	1 0 4 -11.90359
chimesFF: 	0 4 1 -11.90359
chimesFF: 	4 0 1 -11.90359
chimesFF: 	1 4 0 -11.90359
chimesFF: 	4 1 0 -11.90359
chimesFF: 	0 1 6 -0.97567
chimesFF: 	1 0 6 -0.97567
chimesFF: 	0 6 1 -0.97567
chimesFF: 	6 0 1 -0.97567
chimesFF: 	1 6 0 -0.97567
chimesFF: 	6 1 0 -0.97567
chimesFF: 	0 2 2 47.18906
chimesFF: 	2 0 2 47.18906
chimesFF: 	2 2 0 47.18906
chimesFF: 	0 2 3 27.59648
chimesFF: 	2 0 3 27.59648
chimesFF: 	0 3 2 27.59648
chimesFF: 	3 0 2 27.59648
chimesFF: 	2 3 0 27.59648
chimesFF: 	3 2 0 27.59648
chimesFF: 	0 2 4 21.47485
chimesFF: 	2 0 4 21.47485
chimesFF: 	0 4 2 21.47485
chimesFF: 	4 0 2 21.47485
chimesFF: 	2 4 0 21.47485
chimesFF: 	4 2 0 21.47485
chimesFF: 	0 2 5 5.57546
chimesFF: 	2 0 5 5.57546
chimesFF: 	0 5 2 5.57546
chimesFF: 	5 0 2 5.57546
chimesFF: 	2 5 0 5.57546
chimesFF: 	5 2 0 5.57546
chimesFF: 	0 3 4 2.81980
chimesFF: 	3 0 4 2.81980
chimesFF: 	0 4 3 2.81980
chimesFF: 	4 0 3 2.81980
chimesFF: 	3 4 0 2.81980
chimesFF: 	4 3 0 2.81980
chimesFF: 	0 3 5 4.12253
chimesFF: 	3 0 5 4.12253
chimesFF: 	0 5 3 4.12253
chimesFF: 	5 0 3 4.12253
chimesFF: 	3 5 0 4.12253
chimesFF: 	5 3 0 4.12253
chimesFF: 	0 3 7 -0.13001
chimesFF: 	3 0 7 -0.13001
chimesFF: 	0 7 3 -0.13001
chimesFF: 	7 0 3 -0.13001
chimesFF: 	3 7 0 -0.13001
chimesFF: 	7 3 0 -0.13001
chimesFF: 	0 4 4 -16.97178
chimesFF: 	4 0 4 -16.97178
chimesFF: 	4 4 0 -16.97178
chimesFF: 	0 4 5 -13.73999
chimesFF: 	4 0 5 -13.73999
chimesFF: 	0 5 4 -13.73999
chimesFF: 	5 0 4 -13.73999
chimesFF: 	4 5 0 -13.73999
chimesFF: 	5 4 0 -13.73999
chimesFF: 	0 4 6 -1.43174
chimesFF: 	4 0 6 -1.43174
chimesFF: 	0 6 4 -1.43174
chimesFF: 	6 0 4 -1.43174
chimesFF: 	4 6 0 -1.43174
chimesFF: 	6 4 0 -1.43174
chimesFF: 	0 4 7 2.87682
chimesFF: 	4 0 7 2.87682
chimesFF: 	0 7 4 2.87682
chimesFF: 	7 0 4 2.87682
chimesFF: 	4 7 0 2.87682
chimesFF: 	7 4 0 2.87682
chimesFF: 	0 5 5 -9.21314
chimesFF: 	5 0 5 -9.21314
chimesFF: 	5 5 0 -9.21314
chimesFF: 	0 5 6 -2.51581
chimesFF: 	5 0 6 -2.51581
chimesFF: 	0 6 5 -2.51581
chimesFF: 	6 0 5 -2.51581
chimesFF: 	5 6 0 -2.51581
chimesFF: 	6 5 0 -2.51581
chimesFF: 	0 5 7 1.50964
chimesFF: 	5 0 7 1.50964
chimesFF: 	0 7 5 1.50964
chimesFF: 	7 0 5 1.50964
chimesFF: 	5 7 0 1.50964
chimesFF: 	7 5 0 1.50964
chimesFF: 	0 6 6 1.64118
chimesFF: 	6 0 6 1.64118
chimesFF: 	6 6 0 1.64118
chimesFF: 	0 7 7 -0.46583
chimesFF: 	7 0 7 -0.46583
chimesFF: 	7 7 0 -0.46583
chimesFF: 	1 1 2 -30.33657
chimesFF: 	1 2 1 -30.33657
chimesFF: 	2 1 1 -30.33657
chimesFF: 	1 1 3 -55.32286
chimesFF: 	1 3 1 -55.32286
chimesFF: 	3 1 1 -55.32286
chimesFF: 	1 1 4 -29.84235
chimesFF: 	1 4 1 -29.84235
chimesFF: 	4 1 1 -29.84235
chimesFF: 	1 1 5 14.80393
chimesFF: 	1 5 1 14.80393
chimesFF: 	5 1 1 14.80393
chimesFF: 	1 1 7 1.62255
chimesFF: 	1 7 1 1.62255
chimesFF: 	7 1 1 1.62255
chimesFF: 	1 2 2 20.39302
chimesFF: 	2 1 2 20.39302
chimesFF: 	2 2 1 20.39302
chimesFF: 	1 2 3 5.57926
chimesFF: 	2 1 3 5.57926
chimesFF: 	1 3 2 5.57926
chimesFF: 	3 1 2 5.57926
chimesFF: 	2 3 1 5.57926
chimesFF: 	3 2 1 5.57926
chimesFF: 	1 2 4 24.06202
chimesFF: 	2 1 4 24.06202
chimesFF: 	1 4 2 24.06202
chimesFF: 	4 1 2 24.06202
chimesFF: 	2 4 1 24.06202
chimesFF: 	4 2 1 24.06202
chimesFF: 	1 2 5 19.14394
chimesFF: 	2 1 5 19.14394
chimesFF: 	1 5 2 19.14394
chimesFF: 	5 1 2 19.14394
chimesFF: 	2 5 1 19.14394
chimesFF: 	5 2 1 19.14394
chimesFF: 	1 2 6 -3.84217
chimesFF: 	2 1 6 -3.84217
chimesFF: 	1 6 2 -3.84217
chimesFF: 	6 1 2 -3.84217
chimesFF: 	2 6 1 -3.84217
chimesFF: 	6 2 1 -3.84217
chimesFF: 	1 2 7 -1.13923
chimesFF: 	2 1 7 -1.13923
chimesFF: 	1 7 2 -1.13923
chimesFF: 	7 1 2 -1.13923
chimesFF: 	2 7 1 -1.13923
chimesFF: 	7 2 1 -1.13923
chimesFF: 	1 3 4 16.51537
chimesFF: 	3 1 4 16.51537
chimesFF: 	1 4 3 16.51537
chimesFF: 	4 1 3 16.51537
chimesFF: 	3 4 1 16.51537
chimesFF: 	4 3 1 16.51537
chimesFF: 	1 3 5 22.18066
chimesFF: 	3 1 5 22.18066
chimesFF: 	1 5 3 22.18066
chimesFF: 	5 1 3 22.18066
chimesFF: 	3 5 1 22.18066
chimesFF: 	5 3 1 22.18066
chimesFF: 	1 3 6 -1.41820
chimesFF: 	3 1 6 -1.41820
chimesFF: 	1 6 3 -1.41820
chimesFF: 	6 1 3 -1.41820
chimesFF: 	3 6 1 -1.41820
chimesFF: 	6 3 1 -1.41820
chimesFF: 	1 3 7 -0.85161
chimesFF: 	3 1 7 -0.85161
chimesFF: 	1 7 3 -0.85161
chimesFF: 	7 1 3 -0.85161
chimesFF: 	3 7 1 -0.85161
chimesFF: 	7 3 1 -0.85161
chimesFF: 	1 4 4 -16.84449
chimesFF: 	4 1 4 -16.84449
chimesFF: 	4 4 1 -16.84449
chimesFF: 	1 4 5 -15.41457
chimesFF: 	4 1 5 -15.41457
chimesFF: 	1 5 4 -15.41457
chimesFF: 	5 1 4 -15.41457
chimesFF: 	4 5 1 -15.41457
chimesFF: 	5 4 1 -15.41457
chimesFF: 	1 4 6 -2.08317
chimesFF: 	4 1 6 -2.08317
chimesFF: 	1 6 4 -2.08317
chimesFF: 	6 1 4 -2.08317
chimesFF: 	4 6 1 -2.08317
chimesFF: 	6 4 1 -2.08317
chimesFF: 	1 4 7 3.87208
chimesFF: 	4 1 7 3.87208
chimesFF: 	1 7 4 3.87208
chimesFF: 	7 1 4 3.87208
chimesFF: 	4 7 1 3.87208
chimesFF: 	7 4 1 3.87208
chimesFF: 	1 5 5 -6.84778
chimesFF: 	5 1 5 -6.84778
chimesFF: 	5 5 1 -6.84778
chimesFF: 	1 5 7 4.80961
chimesFF: 	5 1 7 4.80961
chimesFF: 	1 7 5 4.80961
chimesFF: 	7 1 5 4.80961
chimesFF: 	5 7 1 4.80961
chimesFF: 	7 5 1 4.80961
chimesFF: 	1 6 6 3.00167
chimesFF: 	6 1 6 3.00167
chimesFF: 	6 6 1 3.00167
chimesFF: 	1 6 7 -0.00430
chimesFF: 	6 1 7 -0.00430
chimesFF: 	1 7 6 -0.00430
chimesFF: 	7 1 6 -0.00430
chimesFF: 	6 7 1 -0.00430
chimesFF: 	7 6 1 -0.00430
chimesFF: 	1 7 7 -0.61254
chimesFF: 	7 1 7 -0.61254
chimesFF: 	7 7 1 -0.61254
chimesFF: 	2 2 3 -28.52858
chimesFF: 	2 3 2 -28.52858
chimesFF: 	3 2 2 -28.52858
chimesFF: 	2 2 4 5.50437
chimesFF: 	2 4 2 5.50437
chimesFF: 	4 2 2 5.50437
chimesFF: 	2 2 6 -9.93953
chimesFF: 	2 6 2 -9.93953
chimesFF: 	6 2 2 -9.93953
chimesFF: 	2 2 7 -3.11371
chimesFF: 	2 7 2 -3.11371
chimesFF: 	7 2 2 -3.11371
chimesFF: 	2 3 3 -27.10108
chimesFF: 	3 2 3 -27.10108
chimesFF: 	3 3 2 -27.10108
chimesFF: 	2 3 5 3.75198
chimesFF: 	3 2 5 3.75198
chimesFF: 	2 5 3 3.75198
chimesFF: 	5 2 3 3.75198
chimesFF: 	3 5 2 3.75198
chimesFF: 	5 3 2 3.75198
chimesFF: 	2 3 6 -4.69269
chimesFF: 	3 2 6 -4.69269
chimesFF: 	2 6 3 -4.69269
chimesFF: 	6 2 3 -4.69269
chimesFF: 	3 6 2 -4.69269
chimesFF: 	6 3 2 -4.69269
chimesFF: 	2 3 7 -1.23912
chimesFF: 	3 2 7 -1.23912
chimesFF: 	2 7 3 -1.23912
chimesFF: 	7 2 3 -1.23912
chimesFF: 	3 7 2 -1.23912
chimesFF: 	7 3 2 -1.23912
chimesFF: 	2 4 4 -7.29495
chimesFF: 	4 2 4 -7.29495
chimesFF: 	4 4 2 -7.29495
chimesFF: 	2 4 5 -13.74132
chimesFF: 	4 2 5 -13.74132
chimesFF: 	2 5 4 -13.74132
chimesFF: 	5 2 4 -13.74132
chimesFF: 	4 5 2 -13.74132
chimesFF: 	5 4 2 -13.74132
chimesFF: 	2 4 7 1.86778
chimesFF: 	4 2 7 1.86778
chimesFF: 	2 7 4 1.86778
chimesFF: 	7 2 4 1.86778
chimesFF: 	4 7 2 1.86778
chimesFF: 	7 4 2 1.86778
chimesFF: 	2 5 5 -8.59951
chimesFF: 	5 2 5 -8.59951
chimesFF: 	5 5 2 -8.59951
chimesFF: 	2 5 7 5.06576
chimesFF: 	5 2 7 5.06576
chimesFF: 	2 7 5 5.06576
chimesFF: 	7 2 5 5.06576
chimesFF: 	5 7 2 5.06576
chimesFF: 	7 5 2 5.06576
chimesFF: 	2 6 6 0.22279
chimesFF: 	6 2 6 0.22279
chimesFF: 	6 6 2 0.22279
chimesFF: 	2 6 7 0.63089
chimesFF: 	6 2 7 0.63089
chimesFF: 	2 7 6 0.63089
chimesFF: 	7 2 6 0.63089
chimesFF: 	6 7 2 0.63089
chimesFF: 	7 6 2 0.63089
chimesFF: 	2 7 7 0.56010
chimesFF: 	7 2 7 0.56010
chimesFF: 	7 7 2 0.56010
chimesFF: 	3 3 4 5.68176
chimesFF: 	3 4 3 5.68176
chimesFF: 	4 3 3 5.68176
chimesFF: 	3 3 6 -1.25919
chimesFF: 	3 6 3 -1.25919
chimesFF: 	6 3 3 -1.25919
chimesFF: 	3 4 5 -12.79565
chimesFF: 	4 3 5 -12.79565
chimesFF: 	3 5 4 -12.79565
chimesFF: 	5 3 4 -12.79565
chimesFF: 	4 5 3 -12.79565
chimesFF: 	5 4 3 -12.79565
chimesFF: 	3 4 6 3.06665
chimesFF: 	4 3 6 3.06665
chimesFF: 	3 6 4 3.06665
chimesFF: 	6 3 4 3.06665
chimesFF: 	4 6 3 3.06665
chimesFF: 	6 4 3 3.06665
chimesFF: 	3 4 7 2.53961
chimesFF: 	4 3 7 2.53961
chimesFF: 	3 7 4 2.53961
chimesFF: 	7 3 4 2.53961
chimesFF: 	4 7 3 2.53961
chimesFF: 	7 4 3 2.53961
chimesFF: 	3 5 5 -6.70061
chimesFF: 	5 3 5 -6.70061
chimesFF: 	5 5 3 -6.70061
chimesFF: 	3 5 6 3.84011
chimesFF: 	5 3 6 3.84011
chimesFF: 	3 6 5 3.84011
chimesFF: 	6 3 5 3.84011
chimesFF: 	5 6 3 3.84011
chimesFF: 	6 5 3 3.84011
chimesFF: 	3 5 7 6.68085
chimesFF: 	5 3 7 6.68085
chimesFF: 	3 7 5 6.68085
chimesFF: 	7 3 5 6.68085
chimesFF: 	5 7 3 6.68085
chimesFF: 	7 5 3 6.68085
chimesFF: 	3 6 7 0.73218
chimesFF: 	6 3 7 0.73218
chimesFF: 	3 7 6 0.73218
chimesFF: 	7 3 6 0.73218
chimesFF: 	6 7 3 0.73218
chimesFF: 	7 6 3 0.73218
chimesFF: 	3 7 7 -0.32568
chimesFF: 	7 3 7 -0.32568
chimesFF: 	7 7 3 -0.32568
chimesFF: 	4 4 4 1.36417
chimesFF: 	4 4 5 -15.91062
chimesFF: 	4 5 4 -15.91062
chimesFF: 	5 4 4 -15.91062
chimesFF: 	4 4 6 2.42116
chimesFF: 	4 6 4 2.42116
chimesFF: 	6 4 4 2.42116
chimesFF: 	4 4 7 3.85294
chimesFF: 	4 7 4 3.85294
chimesFF: 	7 4 4 3.85294
chimesFF: 	4 5 5 -10.90774
chimesFF: 	5 4 5 -10.90774
chimesFF: 	5 5 4 -10.90774
chimesFF: 	4 5 6 1.69180
chimesFF: 	5 4 6 1.69180
chimesFF: 	4 6 5 1.69180
chimesFF: 	6 4 5 1.69180
chimesFF: 	5 6 4 1.69180
chimesFF: 	6 5 4 1.69180
chimesFF: 	4 5 7 5.80297
chimesFF: 	5 4 7 5.80297
chimesFF: 	4 7 5 5.80297
chimesFF: 	7 4 5 5.80297
chimesFF: 	5 7 4 5.80297
chimesFF: 	7 5 4 5.80297
chimesFF: 	4 6 7 1.37387
chimesFF: 	6 4 7 1.37387
chimesFF: 	4 7 6 1.37387
chimesFF: 	7 4 6 1.37387
chimesFF: 	6 7 4 1.37387
chimesFF: 	7 6 4 1.37387
chimesFF: 	4 7 7 -0.26220
chimesFF: 	7 4 7 -0.26220
chimesFF: 	7 7 4 -0.26220
chimesFF: 	5 5 6 3.43057
chimesFF: 	5 6 5 3.43057
chimesFF: 	6 5 5 3.43057
chimesFF: 	5 5 7 4.65793
chimesFF: 	5 7 5 4.65793
chimesFF: 	7 5 5 4.65793
chimesFF: 	5 7 7 -1.20317
chimesFF: 	7 5 7 -1.20317
chimesFF: 	7 7 5 -1.20317
chimesFF: 	6 6 6 -1.23947
chimesFF: 	6 6 7 -1.60595
chimesFF: 	6 7 6 -1.60595
chimesFF: 	7 6 6 -1.60595
chimesFF: 	6 7 7 -1.74794
chimesFF: 	7 6 7 -1.74794
chimesFF: 	7 7 6 -1.74794
chimesFF: 	7 7 7 -1.36788
chimesFF: Read 3B parameters for triplet: 1 H N N
chimesFF: 	0 1 1 -10.32103
chimesFF: 	1 0 1 -10.32103
chimesFF: 	0 1 2 -4.13403
chimesFF: 	1 0 2 -4.13403
chimesFF: 	0 1 3 -15.97583
chimesFF: 	1 0 3 -15.97583
chimesFF: 	0 1 4 -11.39616
chimesFF: 	1 0 4 -11.39616
chimesFF: 	0 1 5 -2.94932
chimesFF: 	1 0 5 -2.94932
chimesFF: 	0 1 7 1.54101
chimesFF: 	1 0 7 1.54101
chimesFF: 	0 2 1 -33.00108
chimesFF: 	2 0 1 -33.00108
chimesFF: 	0 2 2 15.54348
chimesFF: 	2 0 2 15.54348
chimesFF: 	0 2 3 8.41316
chimesFF: 	2 0 3 8.41316
chimesFF: 	0 2 4 13.59631
chimesFF: 	2 0 4 13.59631
chimesFF: 	0 2 5 -1.64640
chimesFF: 	2 0 5 -1.64640
chimesFF: 	0 2 6 -0.11216
chimesFF: 	2 0 6 -0.11216
chimesFF: 	0 3 1 -12.60712
chimesFF: 	3 0 1 -12.60712
chimesFF: 	0 3 2 7.26406
chimesFF: 	3 0 2 7.26406
chimesFF: 	0 3 5 0.32000
chimesFF: 	3 0 5 0.32000
chimesFF: 	0 3 6 1.47109
chimesFF: 	3 0 6 1.47109
chimesFF: 	0 3 7 0.81762
chimesFF: 	3 0 7 0.81762
chimesFF: 	0 4 1 -2.01726
chimesFF: 	4 0 1 -2.01726
chimesFF: 	0 4 2 8.48586
chimesFF: 	4 0 2 8.48586
chimesFF: 	0 4 3 10.19843
chimesFF: 	4 0 3 10.19843
chimesFF: 	0 4 4 2.79024
chimesFF: 	4 0 4 2.79024
chimesFF: 	0 4 5 -2.00650
chimesFF: 	4 0 5 -2.00650
chimesFF: 	0 4 7 0.19822
chimesFF: 	4 0 7 0.19822
chimesFF: 	0 5 2 -0.65837
chimesFF: 	5 0 2 -0.65837
chimesFF: 	0 5 4 -0.80867
chimesFF: 	5 0 4 -0.80867
chimesFF: 	0 5 5 0.85030
chimesFF: 	5 0 5 0.85030
chimesFF: 	0 6 1 0.56494
chimesFF: 	6 0 1 0.56494
chimesFF: 	0 6 2 5.16867
chimesFF: 	6 0 2 5.16867
chimesFF: 	0 6 3 2.38532
chimesFF: 	6 0 3 2.38532
chimesFF: 	0 6 4 0.63400
chimesFF: 	6 0 4 0.63400
chimesFF: 	0 6 5 -0.06687
chimesFF: 	6 0 5 -0.06687
chimesFF: 	0 6 6 0.67272
chimesFF: 	6 0 6 0.67272
chimesFF: 	0 6 7 0.10507
chimesFF: 	6 0 7 0.10507
chimesFF: 	0 7 1 1.31957
chimesFF: 	7 0 1 1.31957
chimesFF: 	0 7 2 0.44724
chimesFF: 	7 0 2 0.44724
chimesFF: 	0 7 4 0.44789
chimesFF: 	7 0 4 0.44789
chimesFF: 	0 7 5 1.23483
chimesFF: 	7 0 5 1.23483
chimesFF: 	0 7 6 -0.14122
chimesFF: 	7 0 6 -0.14122
chimesFF: 	0 7 7 -0.65140
chimesFF: 	7 0 7 -0.65140
chimesFF: 	1 1 0 5.45356
chimesFF: 	1 1 3 -35.72355
chimesFF: 	1 1 4 -28.85577
chimesFF: 	1 1 6 1.43966
chimesFF: 	1 1 7 4.75919
chimesFF: 	1 2 0 5.93782
chimesFF: 	2 1 0 5.93782
chimesFF: 	1 2 1 -21.71469
chimesFF: 	2 1 1 -21.71469
chimesFF: 	1 2 2 19.18583
chimesFF: 	2 1 2 19.18583
chimesFF: 	1 2 3 4.46855
chimesFF: 	2 1 3 4.46855
chimesFF: 	1 2 4 10.58751
chimesFF: 	2 1 4 10.58751
chimesFF: 	1 2 5 0.80242
chimesFF: 	2 1 5 0.80242
chimesFF: 	1 2 6 -1.15960
chimesFF: 	2 1 6 -1.15960
chimesFF: 	1 3 0 -2.99640
chimesFF: 	3 1 0 -2.99640
chimesFF: 	1 3 1 -6.10380
chimesFF: 	3 1 1 -6.10380
chimesFF: 	1 3 2 4.55410
chimesFF: 	3 1 2 4.55410
chimesFF: 	1 3 3 -0.58088
chimesFF: 	3 1 3 -0.58088
chimesFF: 	1 3 4 -1.65197
chimesFF: 	3 1 4 -1.65197
chimesFF: 	1 3 5 6.87203
chimesFF: 	3 1 5 6.87203
chimesFF: 	1 3 6 0.65080
chimesFF: 	3 1 6 0.65080
chimesFF: 	1 3 7 0.49778
chimesFF: 	3 1 7 0.49778
chimesFF: 	1 4 0 -0.88402
chimesFF: 	4 1 0 -0.88402
chimesFF: 	1 4 1 -3.44295
chimesFF: 	4 1 1 -3.44295
chimesFF: 	1 4 3 4.82825
chimesFF: 	4 1 3 4.82825
chimesFF: 	1 4 5 -0.30313
chimesFF: 	4 1 5 -0.30313
chimesFF: 	1 4 7 0.61398
chimesFF: 	4 1 7 0.61398
chimesFF: 	1 5 0 -3.05916
chimesFF: 	5 1 0 -3.05916
chimesFF: 	1 5 2 -0.97476
chimesFF: 	5 1 2 -0.97476
chimesFF: 	1 5 3 0.30977
chimesFF: 	5 1 3 0.30977
chimesFF: 	1 5 5 3.01439
chimesFF: 	5 1 5 3.01439
chimesFF: 	1 5 6 -1.01194
chimesFF: 	5 1 6 -1.01194
chimesFF: 	1 5 7 0.10858
chimesFF: 	5 1 7 0.10858
chimesFF: 	1 6 0 0.18958
chimesFF: 	6 1 0 0.18958
chimesFF: 	1 6 2 3.92871
chimesFF: 	6 1 2 3.92871
chimesFF: 	1 6 4 0.30262
chimesFF: 	6 1 4 0.30262
chimesFF: 	1 6 5 -0.92675
chimesFF: 	6 1 5 -0.92675
chimesFF: 	1 6 6 0.09781
chimesFF: 	6 1 6 0.09781
chimesFF: 	1 6 7 -0.08213
chimesFF: 	6 1 7 -0.08213
chimesFF: 	1 7 1 3.86155
chimesFF: 	7 1 1 3.86155
chimesFF: 	1 7 2 0.88783
chimesFF: 	7 1 2 0.88783
chimesFF: 	1 7 3 0.17873
chimesFF: 	7 1 3 0.17873
chimesFF: 	1 7 5 1.67297
chimesFF: 	7 1 5 1.67297
chimesFF: 	1 7 6 -0.82102
chimesFF: 	7 1 6 -0.82102
chimesFF: 	1 7 7 -1.09842
chimesFF: 	7 1 7 -1.09842
chimesFF: 	2 2 0 16.20452
chimesFF: 	2 2 5 -12.57387
chimesFF: 	2 2 6 -3.88512
chimesFF: 	2 2 7 -1.62029
chimesFF: 	2 3 0 -1.04749
chimesFF: 	3 2 0 -1.04749
chimesFF: 	2 3 3 8.53854
chimesFF: 	3 2 3 8.53854
chimesFF: 	2 3 5 -3.67112
chimesFF: 	3 2 5 -3.67112
chimesFF: 	2 3 6 -4.80741
chimesFF: 	3 2 6 -4.80741
chimesFF: 	2 3 7 -1.95372
chimesFF: 	3 2 7 -1.95372
chimesFF: 	2 4 0 6.38008
chimesFF: 	4 2 0 6.38008
chimesFF: 	2 4 1 -1.01217
chimesFF: 	4 2 1 -1.01217
chimesFF: 	2 4 3 0.64005
chimesFF: 	4 2 3 0.64005
chimesFF: 	2 4 5 -4.22720
chimesFF: 	4 2 5 -4.22720
chimesFF: 	2 5 0 -3.38956
chimesFF: 	5 2 0 -3.38956
chimesFF: 	2 5 2 7.73073
chimesFF: 	5 2 2 7.73073
chimesFF: 	2 5 3 2.61661
chimesFF: 	5 2 3 2.61661
chimesFF: 	2 5 4 1.62288
chimesFF: 	5 2 4 1.62288
chimesFF: 	2 5 5 -0.60789
chimesFF: 	5 2 5 -0.60789
chimesFF: 	2 5 6 -2.00064
chimesFF: 	5 2 6 -2.00064
chimesFF: 	2 5 7 -0.36913
chimesFF: 	5 2 7 -0.36913
chimesFF: 	2 6 0 1.73339
chimesFF: 	6 2 0 1.73339
chimesFF: 	2 6 3 -4.91961
chimesFF: 	6 2 3 -4.91961
chimesFF: 	2 6 4 -0.41412
chimesFF: 	6 2 4 -0.41412
chimesFF: 	2 6 5 -0.75559
chimesFF: 	6 2 5 -0.75559
chimesFF: 	2 6 6 1.65156
chimesFF: 	6 2 6 1.65156
chimesFF: 	2 6 7 0.36449
chimesFF: 	6 2 7 0.36449
chimesFF: 	2 7 0 -2.28195
chimesFF: 	7 2 0 -2.28195
chimesFF: 	2 7 3 -1.75439
chimesFF: 	7 2 3 -1.75439
chimesFF: 	2 7 4 -1.41681
chimesFF: 	7 2 4 -1.41681
chimesFF: 	2 7 6 -0.51678
chimesFF: 	7 2 6 -0.51678
chimesFF: 	2 7 7 -0.70941
chimesFF: 	7 2 7 -0.70941
chimesFF: 	3 3 0 -7.47478
chimesFF: 	3 3 3 10.35225
chimesFF: 	3 3 4 1.61120
chimesFF: 	3 3 6 -8.98224
chimesFF: 	3 3 7 -4.12544
chimesFF: 	3 4 0 3.87615
chimesFF: 	4 3 0 3.87615
chimesFF: 	3 4 1 3.92344
chimesFF: 	4 3 1 3.92344
chimesFF: 	3 4 4 0.50134
chimesFF: 	4 3 4 0.50134
chimesFF: 	3 4 5 0.04381
chimesFF: 	4 3 5 0.04381
chimesFF: 	3 4 6 -1.79669
chimesFF: 	4 3 6 -1.79669
chimesFF: 	3 4 7 -1.29974
chimesFF: 	4 3 7 -1.29974
chimesFF: 	3 5 0 -3.17353
chimesFF: 	5 3 0 -3.17353
chimesFF: 	3 5 1 5.39384
chimesFF: 	5 3 1 5.39384
chimesFF: 	3 5 2 6.29314
chimesFF: 	5 3 2 6.29314
chimesFF: 	3 5 3 4.31423
chimesFF: 	5 3 3 4.31423
chimesFF: 	3 5 6 -3.49821
chimesFF: 	5 3 6 -3.49821
chimesFF: 	3 5 7 -0.41040
chimesFF: 	5 3 7 -0.41040
chimesFF: 	3 6 2 -2.03817
chimesFF: 	6 3 2 -2.03817
chimesFF: 	3 6 3 -2.39772
chimesFF: 	6 3 3 -2.39772
chimesFF: 	3 6 4 -0.12948
chimesFF: 	6 3 4 -0.12948
chimesFF: 	3 6 5 -0.17773
chimesFF: 	6 3 5 -0.17773
chimesFF: 	3 7 0 -1.60446
chimesFF: 	7 3 0 -1.60446
chimesFF: 	3 7 2 -0.47581
chimesFF: 	7 3 2 -0.47581
chimesFF: 	3 7 3 -1.06761
chimesFF: 	7 3 3 -1.06761
chimesFF: 	3 7 4 -1.08974
chimesFF: 	7 3 4 -1.08974
chimesFF: 	3 7 6 -0.43156
chimesFF: 	7 3 6 -0.43156
chimesFF: 	3 7 7 -0.33975
chimesFF: 	7 3 7 -0.33975
chimesFF: 	4 4 0 3.28607
chimesFF: 	4 4 3 -1.64022
chimesFF: 	4 4 4 1.79896
chimesFF: 	4 4 5 0.70028
chimesFF: 	4 4 6 0.93628
chimesFF: 	4 4 7 -0.75287
chimesFF: 	4 5 0 -1.46485
chimesFF: 	5 4 0 -1.46485
chimesFF: 	4 5 3 -0.73927
chimesFF: 	5 4 3 -0.73927
chimesFF: 	4 5 4 -1.33890
chimesFF: 	5 4 4 -1.33890
chimesFF: 	4 5 6 -1.27320
chimesFF: 	5 4 6 -1.27320
chimesFF: 	4 5 7 -0.03944
chimesFF: 	5 4 7 -0.03944
chimesFF: 	4 6 0 0.93812
chimesFF: 	6 4 0 0.93812
chimesFF: 	4 6 3 -0.82307
chimesFF: 	6 4 3 -0.82307
chimesFF: 	4 6 4 0.45361
chimesFF: 	6 4 4 0.45361
chimesFF: 	4 6 5 0.64858
chimesFF: 	6 4 5 0.64858
chimesFF: 	4 6 6 0.75815
chimesFF: 	6 4 6 0.75815
chimesFF: 	4 7 0 0.41885
chimesFF: 	7 4 0 0.41885
chimesFF: 	4 7 1 0.66659
chimesFF: 	7 4 1 0.66659
chimesFF: 	4 7 3 -0.60516
chimesFF: 	7 4 3 -0.60516
chimesFF: 	4 7 4 0.43888
chimesFF: 	7 4 4 0.43888
chimesFF: 	4 7 5 0.82076
chimesFF: 	7 4 5 0.82076
chimesFF: 	4 7 6 0.52626
chimesFF: 	7 4 6 0.52626
chimesFF: 	4 7 7 -0.11961
chimesFF: 	7 4 7 -0.11961
chimesFF: 	5 5 1 0.35112
chimesFF: 	5 5 2 -1.36435
chimesFF: 	5 5 3 -0.02934
chimesFF: 	5 5 4 -1.81561
chimesFF: 	5 5 5 0.44579
chimesFF: 	5 5 6 -1.35110
chimesFF: 	5 5 7 0.87799
chimesFF: 	5 6 0 1.04909
chimesFF: 	6 5 0 1.04909
chimesFF: 	5 6 1 -0.05140
chimesFF: 	6 5 1 -0.05140
chimesFF: 	5 6 3 0.78402
chimesFF: 	6 5 3 0.78402
chimesFF: 	5 6 5 0.44397
chimesFF: 	6 5 5 0.44397
chimesFF: 	5 6 6 -0.13096
chimesFF: 	6 5 6 -0.13096
chimesFF: 	5 6 7 0.37827
chimesFF: 	6 5 7 0.37827
chimesFF: 	5 7 0 0.86582
chimesFF: 	7 5 0 0.86582
chimesFF: 	5 7 1 1.00268
chimesFF: 	7 5 1 1.00268
chimesFF: 	5 7 2 -0.08631
chimesFF: 	7 5 2 -0.08631
chimesFF: 	5 7 3 0.73571
chimesFF: 	7 5 3 0.73571
chimesFF: 	5 7 4 0.51085
chimesFF: 	7 5 4 0.51085
chimesFF: 	5 7 5 0.94961
chimesFF: 	7 5 5 0.94961
chimesFF: 	5 7 6 0.47324
chimesFF: 	7 5 6 0.47324
chimesFF: 	5 7 7 0.26801
chimesFF: 	7 5 7 0.26801
chimesFF: 	6 6 0 1.39438
chimesFF: 	6 6 2 0.18645
chimesFF: 	6 6 3 0.37219
chimesFF: 	6 6 6 0.01205
chimesFF: 	6 7 0 0.48471
chimesFF: 	7 6 0 0.48471
chimesFF: 	6 7 1 -0.36210
chimesFF: 	7 6 1 -0.36210
chimesFF: 	6 7 2 -0.40548
chimesFF: 	7 6 2 -0.40548
chimesFF: 	6 7 3 -0.19993
chimesFF: 	7 6 3 -0.19993
chimesFF: 	6 7 4 0.07318
chimesFF: 	7 6 4 0.07318
chimesFF: 	6 7 6 0.19478
chimesFF: 	7 6 6 0.19478
chimesFF: 	6 7 7 0.00843
chimesFF: 	7 6 7 0.00843
chimesFF: 	7 7 0 0.28090
chimesFF: 	7 7 1 0.09612
chimesFF: 	7 7 3 0.16791
chimesFF: 	7 7 4 -0.03816
chimesFF: 	7 7 5 0.20746
chimesFF: 	7 7 6 0.29419
chimesFF: 	7 7 7 0.20634
chimesFF: Read 3B parameters for triplet: 2 H H N
chimesFF: 	0 1 1 -1.72690
chimesFF: 	0 1 3 0.27552
chimesFF: 	0 3 1 0.27552
chimesFF: 	0 1 5 1.43957
chimesFF: 	0 5 1 1.43957
chimesFF: 	0 1 7 -0.14777
chimesFF: 	0 7 1 -0.14777
chimesFF: 	0 2 2 15.99539
chimesFF: 	0 2 3 8.84080
chimesFF: 	0 3 2 8.84080
chimesFF: 	0 2 4 1.73414
chimesFF: 	0 4 2 1.73414
chimesFF: 	0 2 5 0.07962
chimesFF: 	0 5 2 0.07962
chimesFF: 	0 2 7 0.21140
chimesFF: 	0 7 2 0.21140
chimesFF: 	0 3 3 2.96715
chimesFF: 	0 3 4 0.03803
chimesFF: 	0 4 3 0.03803
chimesFF: 	0 3 6 -0.05683
chimesFF: 	0 6 3 -0.05683
chimesFF: 	0 3 7 0.04031
chimesFF: 	0 7 3 0.04031
chimesFF: 	0 4 4 -0.00264
chimesFF: 	0 4 6 0.34357
chimesFF: 	0 6 4 0.34357
chimesFF: 	0 4 7 0.31468
chimesFF: 	0 7 4 0.31468
chimesFF: 	0 5 5 1.34670
chimesFF: 	0 5 7 -0.17473
chimesFF: 	0 7 5 -0.17473
chimesFF: 	0 6 6 -0.44364
chimesFF: 	0 6 7 -0.55226
chimesFF: 	0 7 6 -0.55226
chimesFF: 	0 7 7 -0.71730
chimesFF: 	1 0 1 3.06798
chimesFF: 	1 1 0 3.06798
chimesFF: 	1 0 2 5.04461
chimesFF: 	1 2 0 5.04461
chimesFF: 	1 0 3 2.95049
chimesFF: 	1 3 0 2.95049
chimesFF: 	1 0 5 -2.75534
chimesFF: 	1 5 0 -2.75534
chimesFF: 	1 0 6 -0.69931
chimesFF: 	1 6 0 -0.69931
chimesFF: 	1 0 7 0.22908
chimesFF: 	1 7 0 0.22908
chimesFF: 	1 1 1 4.20638
chimesFF: 	1 1 5 -0.27690
chimesFF: 	1 5 1 -0.27690
chimesFF: 	1 1 7 0.23241
chimesFF: 	1 7 1 0.23241
chimesFF: 	1 2 6 0.28119
chimesFF: 	1 6 2 0.28119
chimesFF: 	1 3 3 -2.20364
chimesFF: 	1 3 5 0.50214
chimesFF: 	1 5 3 0.50214
chimesFF: 	1 4 5 -0.82774
chimesFF: 	1 5 4 -0.82774
chimesFF: 	1 4 7 0.34320
chimesFF: 	1 7 4 0.34320
chimesFF: 	1 5 7 0.07364
chimesFF: 	1 7 5 0.07364
chimesFF: 	1 6 7 -0.37223
chimesFF: 	1 7 6 -0.37223
chimesFF: 	1 7 7 -0.91746
chimesFF: 	2 0 2 4.97440
chimesFF: 	2 2 0 4.97440
chimesFF: 	2 0 5 0.06645
chimesFF: 	2 5 0 0.06645
chimesFF: 	2 0 6 0.57452
chimesFF: 	2 6 0 0.57452
chimesFF: 	2 0 7 0.00480
chimesFF: 	2 7 0 0.00480
chimesFF: 	2 1 2 3.98026
chimesFF: 	2 2 1 3.98026
chimesFF: 	2 1 6 0.59264
chimesFF: 	2 6 1 0.59264
chimesFF: 	2 2 3 3.82667
chimesFF: 	2 3 2 3.82667
chimesFF: 	2 2 4 -0.07903
chimesFF: 	2 4 2 -0.07903
chimesFF: 	2 2 5 -3.38387
chimesFF: 	2 5 2 -3.38387
chimesFF: 	2 2 6 -0.28065
chimesFF: 	2 6 2 -0.28065
chimesFF: 	2 2 7 -0.16092
chimesFF: 	2 7 2 -0.16092
chimesFF: 	2 3 3 5.61230
chimesFF: 	2 3 5 -2.60612
chimesFF: 	2 5 3 -2.60612
chimesFF: 	2 3 6 -0.33543
chimesFF: 	2 6 3 -0.33543
chimesFF: 	2 3 7 0.91348
chimesFF: 	2 7 3 0.91348
chimesFF: 	2 4 4 -0.77147
chimesFF: 	2 4 5 0.19466
chimesFF: 	2 5 4 0.19466
chimesFF: 	2 4 6 0.27074
chimesFF: 	2 6 4 0.27074
chimesFF: 	2 5 7 -0.15420
chimesFF: 	2 7 5 -0.15420
chimesFF: 	3 0 2 10.37172
chimesFF: 	3 2 0 10.37172
chimesFF: 	3 0 3 6.10630
chimesFF: 	3 3 0 6.10630
chimesFF: 	3 0 4 0.47729
chimesFF: 	3 4 0 0.47729
chimesFF: 	3 0 5 -0.43485
chimesFF: 	3 5 0 -0.43485
chimesFF: 	3 1 1 -2.39095
chimesFF: 	3 1 2 7.00336
chimesFF: 	3 2 1 7.00336
chimesFF: 	3 1 3 2.49139
chimesFF: 	3 3 1 2.49139
chimesFF: 	3 1 7 -0.14519
chimesFF: 	3 7 1 -0.14519
chimesFF: 	3 2 4 3.73024
chimesFF: 	3 4 2 3.73024
chimesFF: 	3 2 5 0.66403
chimesFF: 	3 5 2 0.66403
chimesFF: 	3 2 6 1.42564
chimesFF: 	3 6 2 1.42564
chimesFF: 	3 3 4 2.68027
chimesFF: 	3 4 3 2.68027
chimesFF: 	3 3 7 0.07717
chimesFF: 	3 7 3 0.07717
chimesFF: 	3 4 4 0.77199
chimesFF: 	3 4 6 -0.51946
chimesFF: 	3 6 4 -0.51946
chimesFF: 	3 4 7 -0.68156
chimesFF: 	3 7 4 -0.68156
chimesFF: 	3 5 5 -0.03995
chimesFF: 	3 5 6 -0.09116
chimesFF: 	3 6 5 -0.09116
chimesFF: 	3 6 6 0.38202
chimesFF: 	3 6 7 0.44632
chimesFF: 	3 7 6 0.44632
chimesFF: 	3 7 7 0.28550
chimesFF: 	4 0 1 -0.34971
chimesFF: 	4 1 0 -0.34971
chimesFF: 	4 0 2 -0.96109
chimesFF: 	4 2 0 -0.96109
chimesFF: 	4 0 5 1.46030
chimesFF: 	4 5 0 1.46030
chimesFF: 	4 1 3 0.29215
chimesFF: 	4 3 1 0.29215
chimesFF: 	4 1 5 2.24281
chimesFF: 	4 5 1 2.24281
chimesFF: 	4 2 2 4.68956
chimesFF: 	4 2 3 4.33072
chimesFF: 	4 3 2 4.33072
chimesFF: 	4 2 5 -0.75081
chimesFF: 	4 5 2 -0.75081
chimesFF: 	4 2 6 -0.45111
chimesFF: 	4 6 2 -0.45111
chimesFF: 	4 3 4 -1.29999
chimesFF: 	4 4 3 -1.29999
chimesFF: 	4 3 5 -0.57410
chimesFF: 	4 5 3 -0.57410
chimesFF: 	4 4 4 -0.94451
chimesFF: 	4 4 5 1.16104
chimesFF: 	4 5 4 1.16104
chimesFF: 	4 4 7 -0.42441
chimesFF: 	4 7 4 -0.42441
chimesFF: 	4 5 5 2.30996
chimesFF: 	4 5 6 0.39935
chimesFF: 	4 6 5 0.39935
chimesFF: 	4 6 7 0.40501
chimesFF: 	4 7 6 0.40501
chimesFF: 	4 7 7 0.40619
chimesFF: 	5 0 1 0.64298
chimesFF: 	5 1 0 0.64298
chimesFF: 	5 0 3 -0.84536
chimesFF: 	5 3 0 -0.84536
chimesFF: 	5 0 4 -1.24305
chimesFF: 	5 4 0 -1.24305
chimesFF: 	5 0 5 -0.25113
chimesFF: 	5 5 0 -0.25113
chimesFF: 	5 0 6 0.20032
chimesFF: 	5 6 0 0.20032
chimesFF: 	5 1 1 2.18347
chimesFF: 	5 1 3 -1.49698
chimesFF: 	5 3 1 -1.49698
chimesFF: 	5 1 4 -1.62240
chimesFF: 	5 4 1 -1.62240
chimesFF: 	5 1 5 -0.00916
chimesFF: 	5 5 1 -0.00916
chimesFF: 	5 1 6 0.58898
chimesFF: 	5 6 1 0.58898
chimesFF: 	5 1 7 -0.00834
chimesFF: 	5 7 1 -0.00834
chimesFF: 	5 2 2 -2.12929
chimesFF: 	5 3 4 0.23386
chimesFF: 	5 4 3 0.23386
chimesFF: 	5 3 5 0.00136
chimesFF: 	5 5 3 0.00136
chimesFF: 	5 3 6 0.13873
chimesFF: 	5 6 3 0.13873
chimesFF: 	5 3 7 0.00556
chimesFF: 	5 7 3 0.00556
chimesFF: 	5 5 6 -0.01798
chimesFF: 	5 6 5 -0.01798
chimesFF: 	5 5 7 -0.01008
chimesFF: 	5 7 5 -0.01008
chimesFF: 	5 6 7 0.16658
chimesFF: 	5 7 6 0.16658
chimesFF: 	6 0 1 -0.41552
chimesFF: 	6 1 0 -0.41552
chimesFF: 	6 0 2 0.48253
chimesFF: 	6 2 0 0.48253
chimesFF: 	6 0 4 0.46680
chimesFF: 	6 4 0 0.46680
chimesFF: 	6 0 5 0.11660
chimesFF: 	6 5 0 0.11660
chimesFF: 	6 1 2 2.09863
chimesFF: 	6 2 1 2.09863
chimesFF: 	6 1 3 0.70844
chimesFF: 	6 3 1 0.70844
chimesFF: 	6 1 4 0.24085
chimesFF: 	6 4 1 0.24085
chimesFF: 	6 1 7 0.06298
chimesFF: 	6 7 1 0.06298
chimesFF: 	6 2 2 1.19544
chimesFF: 	6 2 3 1.19367
chimesFF: 	6 3 2 1.19367
chimesFF: 	6 2 4 -0.24347
chimesFF: 	6 4 2 -0.24347
chimesFF: 	6 2 5 -0.52952
chimesFF: 	6 5 2 -0.52952
chimesFF: 	6 2 6 -0.84702
chimesFF: 	6 6 2 -0.84702
chimesFF: 	6 2 7 0.07450
chimesFF: 	6 7 2 0.07450
chimesFF: 	6 3 4 -1.20971
chimesFF: 	6 4 3 -1.20971
chimesFF: 	6 3 5 -0.67655
chimesFF: 	6 5 3 -0.67655
chimesFF: 	6 3 6 -0.55351
chimesFF: 	6 6 3 -0.55351
chimesFF: 	6 4 5 0.42699
chimesFF: 	6 5 4 0.42699
chimesFF: 	6 4 6 0.02827
chimesFF: 	6 6 4 0.02827
chimesFF: 	6 4 7 0.02284
chimesFF: 	6 7 4 0.02284
chimesFF: 	6 5 5 0.55346
chimesFF: 	6 5 7 -0.01850
chimesFF: 	6 7 5 -0.01850
chimesFF: 	6 6 6 -0.39027
chimesFF: 	6 6 7 -0.19147
chimesFF: 	6 7 6 -0.19147
chimesFF: 	6 7 7 -0.28193
chimesFF: 	7 0 1 0.11191
chimesFF: 	7 1 0 0.11191
chimesFF: 	7 0 3 -0.17702
chimesFF: 	7 3 0 -0.17702
chimesFF: 	7 0 6 0.24079
chimesFF: 	7 6 0 0.24079
chimesFF: 	7 0 7 0.04709
chimesFF: 	7 7 0 0.04709
chimesFF: 	7 1 2 -0.29098
chimesFF: 	7 2 1 -0.29098
chimesFF: 	7 1 3 -0.32092
chimesFF: 	7 3 1 -0.32092
chimesFF: 	7 1 4 -0.18163
chimesFF: 	7 4 1 -0.18163
chimesFF: 	7 1 5 0.33481
chimesFF: 	7 5 1 0.33481
chimesFF: 	7 1 6 0.63040
chimesFF: 	7 6 1 0.63040
chimesFF: 	7 2 2 -2.34322
chimesFF: 	7 2 4 0.02425
chimesFF: 	7 4 2 0.02425
chimesFF: 	7 2 5 0.42691
chimesFF: 	7 5 2 0.42691
chimesFF: 	7 2 7 -0.00535
chimesFF: 	7 7 2 -0.00535
chimesFF: 	7 3 3 1.09033
chimesFF: 	7 3 5 0.02799
chimesFF: 	7 5 3 0.02799
chimesFF: 	7 3 7 -0.10317
chimesFF: 	7 7 3 -0.10317
chimesFF: 	7 4 4 -0.39731
chimesFF: 	7 4 5 -0.52595
chimesFF: 	7 5 4 -0.52595
chimesFF: 	7 4 6 -0.09056
chimesFF: 	7 6 4 -0.09056
chimesFF: 	7 4 7 -0.14392
chimesFF: 	7 7 4 -0.14392
chimesFF: 	7 5 5 -0.12800
chimesFF: 	7 5 6 0.05533
chimesFF: 	7 6 5 0.05533
chimesFF: 	7 5 7 -0.05817
chimesFF: 	7 7 5 -0.05817
chimesFF: 	7 6 6 -0.17258
chimesFF: 	7 6 7 -0.18764
chimesFF: 	7 7 6 -0.18764
chimesFF: 	7 7 7 -0.33453
chimesFF: Read 3B parameters for triplet: 3 H H H
chimesFF: 	0 1 1 1.14774
chimesFF: 	1 0 1 1.14774
chimesFF: 	1 1 0 1.14774
chimesFF: 	0 1 2 0.63755
chimesFF: 	1 0 2 0.63755
chimesFF: 	0 2 1 0.63755
chimesFF: 	2 0 1 0.63755
chimesFF: 	1 2 0 0.63755
chimesFF: 	2 1 0 0.63755
chimesFF: 	0 1 6 0.25551
chimesFF: 	1 0 6 0.25551
chimesFF: 	0 6 1 0.25551
chimesFF: 	6 0 1 0.25551
chimesFF: 	1 6 0 0.25551
chimesFF: 	6 1 0 0.25551
chimesFF: 	0 1 7 0.09747
chimesFF: 	1 0 7 0.09747
chimesFF: 	0 7 1 0.09747
chimesFF: 	7 0 1 0.09747
chimesFF: 	1 7 0 0.09747
chimesFF: 	7 1 0 0.09747
chimesFF: 	0 2 2 6.43419
chimesFF: 	2 0 2 6.43419
chimesFF: 	2 2 0 6.43419
chimesFF: 	0 2 3 5.27787
chimesFF: 	2 0 3 5.27787
chimesFF: 	0 3 2 5.27787
chimesFF: 	3 0 2 5.27787
chimesFF: 	2 3 0 5.27787
chimesFF: 	3 2 0 5.27787
chimesFF: 	0 2 4 1.84569
chimesFF: 	2 0 4 1.84569
chimesFF: 	0 4 2 1.84569
chimesFF: 	4 0 2 1.84569
chimesFF: 	2 4 0 1.84569
chimesFF: 	4 2 0 1.84569
chimesFF: 	0 2 5 -0.46966
chimesFF: 	2 0 5 -0.46966
chimesFF: 	0 5 2 -0.46966
chimesFF: 	5 0 2 -0.46966
chimesFF: 	2 5 0 -0.46966
chimesFF: 	5 2 0 -0.46966
chimesFF: 	0 2 6 0.49153
chimesFF: 	2 0 6 0.49153
chimesFF: 	0 6 2 0.49153
chimesFF: 	6 0 2 0.49153
chimesFF: 	2 6 0 0.49153
chimesFF: 	6 2 0 0.49153
chimesFF: 	0 2 7 -0.01433
chimesFF: 	2 0 7 -0.01433
chimesFF: 	0 7 2 -0.01433
chimesFF: 	7 0 2 -0.01433
chimesFF: 	2 7 0 -0.01433
chimesFF: 	7 2 0 -0.01433
chimesFF: 	0 3 4 0.21230
chimesFF: 	3 0 4 0.21230
chimesFF: 	0 4 3 0.21230
chimesFF: 	4 0 3 0.21230
chimesFF: 	3 4 0 0.21230
chimesFF: 	4 3 0 0.21230
chimesFF: 	0 3 7 -0.04733
chimesFF: 	3 0 7 -0.04733
chimesFF: 	0 7 3 -0.04733
chimesFF: 	7 0 3 -0.04733
chimesFF: 	3 7 0 -0.04733
chimesFF: 	7 3 0 -0.04733
chimesFF: 	0 4 5 -0.17275
chimesFF: 	4 0 5 -0.17275
chimesFF: 	0 5 4 -0.17275
chimesFF: 	5 0 4 -0.17275
chimesFF: 	4 5 0 -0.17275
chimesFF: 	5 4 0 -0.17275
chimesFF: 	0 5 6 -0.05510
chimesFF: 	5 0 6 -0.05510
chimesFF: 	0 6 5 -0.05510
chimesFF: 	6 0 5 -0.05510
chimesFF: 	5 6 0 -0.05510
chimesFF: 	6 5 0 -0.05510
chimesFF: 	0 6 7 0.03290
chimesFF: 	6 0 7 0.03290
chimesFF: 	0 7 6 0.03290
chimesFF: 	7 0 6 0.03290
chimesFF: 	6 7 0 0.03290
chimesFF: 	7 6 0 0.03290
chimesFF: 	1 1 2 -5.17073
chimesFF: 	1 2 1 -5.17073
chimesFF: 	2 1 1 -5.17073
chimesFF: 	1 1 3 -5.43937
chimesFF: 	1 3 1 -5.43937
chimesFF: 	3 1 1 -5.43937
chimesFF: 	1 1 5 0.50164
chimesFF: 	1 5 1 0.50164
chimesFF: 	5 1 1 0.50164
chimesFF: 	1 2 3 1.45497
chimesFF: 	2 1 3 1.45497
chimesFF: 	1 3 2 1.45497
chimesFF: 	3 1 2 1.45497
chimesFF: 	2 3 1 1.45497
chimesFF: 	3 2 1 1.45497
chimesFF: 	1 2 4 1.12994
chimesFF: 	2 1 4 1.12994
chimesFF: 	1 4 2 1.12994
chimesFF: 	4 1 2 1.12994
chimesFF: 	2 4 1 1.12994
chimesFF: 	4 2 1 1.12994
chimesFF: 	1 2 7 -0.05980
chimesFF: 	2 1 7 -0.05980
chimesFF: 	1 7 2 -0.05980
chimesFF: 	7 1 2 -0.05980
chimesFF: 	2 7 1 -0.05980
chimesFF: 	7 2 1 -0.05980
chimesFF: 	1 3 6 -0.30251
chimesFF: 	3 1 6 -0.30251
chimesFF: 	1 6 3 -0.30251
chimesFF: 	6 1 3 -0.30251
chimesFF: 	3 6 1 -0.30251
chimesFF: 	6 3 1 -0.30251
chimesFF: 	1 3 7 -0.09854
chimesFF: 	3 1 7 -0.09854
chimesFF: 	1 7 3 -0.09854
chimesFF: 	7 1 3 -0.09854
chimesFF: 	3 7 1 -0.09854
chimesFF: 	7 3 1 -0.09854
chimesFF: 	1 4 5 0.00647
chimesFF: 	4 1 5 0.00647
chimesFF: 	1 5 4 0.00647
chimesFF: 	5 1 4 0.00647
chimesFF: 	4 5 1 0.00647
chimesFF: 	5 4 1 0.00647
chimesFF: 	1 4 7 0.23818
chimesFF: 	4 1 7 0.23818
chimesFF: 	1 7 4 0.23818
chimesFF: 	7 1 4 0.23818
chimesFF: 	4 7 1 0.23818
chimesFF: 	7 4 1 0.23818
chimesFF: 	1 5 7 0.05196
chimesFF: 	5 1 7 0.05196
chimesFF: 	1 7 5 0.05196
chimesFF: 	7 1 5 0.05196
chimesFF: 	5 7 1 0.05196
chimesFF: 	7 5 1 0.05196
chimesFF: 	1 7 7 -0.03957
chimesFF: 	7 1 7 -0.03957
chimesFF: 	7 7 1 -0.03957
chimesFF: 	2 2 4 -1.00054
chimesFF: 	2 4 2 -1.00054
chimesFF: 	4 2 2 -1.00054
chimesFF: 	2 2 5 0.54974
chimesFF: 	2 5 2 0.54974
chimesFF: 	5 2 2 0.54974
chimesFF: 	2 2 6 -0.12559
chimesFF: 	2 6 2 -0.12559
chimesFF: 	6 2 2 -0.12559
chimesFF: 	2 3 3 1.45858
chimesFF: 	3 2 3 1.45858
chimesFF: 	3 3 2 1.45858
chimesFF: 	2 3 5 -0.04410
chimesFF: 	3 2 5 -0.04410
chimesFF: 	2 5 3 -0.04410
chimesFF: 	5 2 3 -0.04410
chimesFF: 	3 5 2 -0.04410
chimesFF: 	5 3 2 -0.04410
chimesFF: 	2 4 7 -0.08749
chimesFF: 	4 2 7 -0.08749
chimesFF: 	2 7 4 -0.08749
chimesFF: 	7 2 4 -0.08749
chimesFF: 	4 7 2 -0.08749
chimesFF: 	7 4 2 -0.08749
chimesFF: 	2 5 7 -0.12050
chimesFF: 	5 2 7 -0.12050
chimesFF: 	2 7 5 -0.12050
chimesFF: 	7 2 5 -0.12050
chimesFF: 	5 7 2 -0.12050
chimesFF: 	7 5 2 -0.12050
chimesFF: 	2 6 7 -0.03982
chimesFF: 	6 2 7 -0.03982
chimesFF: 	2 7 6 -0.03982
chimesFF: 	7 2 6 -0.03982
chimesFF: 	6 7 2 -0.03982
chimesFF: 	7 6 2 -0.03982
chimesFF: 	2 7 7 0.03199
chimesFF: 	7 2 7 0.03199
chimesFF: 	7 7 2 0.03199
chimesFF: 	3 3 6 0.03096
chimesFF: 	3 6 3 0.03096
chimesFF: 	6 3 3 0.03096
chimesFF: 	3 3 7 0.46829
chimesFF: 	3 7 3 0.46829
chimesFF: 	7 3 3 0.46829
chimesFF: 	3 4 5 -0.06421
chimesFF: 	4 3 5 -0.06421
chimesFF: 	3 5 4 -0.06421
chimesFF: 	5 3 4 -0.06421
chimesFF: 	4 5 3 -0.06421
chimesFF: 	5 4 3 -0.06421
chimesFF: 	3 4 6 -0.33361
chimesFF: 	4 3 6 -0.33361
chimesFF: 	3 6 4 -0.33361
chimesFF: 	6 3 4 -0.33361
chimesFF: 	4 6 3 -0.33361
chimesFF: 	6 4 3 -0.33361
chimesFF: 	3 4 7 -0.10683
chimesFF: 	4 3 7 -0.10683
chimesFF: 	3 7 4 -0.10683
chimesFF: 	7 3 4 -0.10683
chimesFF: 	4 7 3 -0.10683
chimesFF: 	7 4 3 -0.10683
chimesFF: 	3 5 6 -0.08890
chimesFF: 	5 3 6 -0.08890
chimesFF: 	3 6 5 -0.08890
chimesFF: 	6 3 5 -0.08890
chimesFF: 	5 6 3 -0.08890
chimesFF: 	6 5 3 -0.08890
chimesFF: 	3 6 6 0.05268
chimesFF: 	6 3 6 0.05268
chimesFF: 	6 6 3 0.05268
chimesFF: 	4 4 4 -0.36902
chimesFF: 	4 5 6 0.00381
chimesFF: 	5 4 6 0.00381
chimesFF: 	4 6 5 0.00381
chimesFF: 	6 4 5 0.00381
chimesFF: 	5 6 4 0.00381
chimesFF: 	6 5 4 0.00381
chimesFF: 	4 5 7 0.10579
chimesFF: 	5 4 7 0.10579
chimesFF: 	4 7 5 0.10579
chimesFF: 	7 4 5 0.10579
chimesFF: 	5 7 4 0.10579
chimesFF: 	7 5 4 0.10579
chimesFF: 	4 6 7 -0.03437
chimesFF: 	6 4 7 -0.03437
chimesFF: 	4 7 6 -0.03437
chimesFF: 	7 4 6 -0.03437
chimesFF: 	6 7 4 -0.03437
chimesFF: 	7 6 4 -0.03437
chimesFF: 	4 7 7 -0.14642
chimesFF: 	7 4 7 -0.14642
chimesFF: 	7 7 4 -0.14642
chimesFF: 	5 5 7 0.13522
chimesFF: 	5 7 5 0.13522
chimesFF: 	7 5 5 0.13522
chimesFF: 	5 6 6 -0.19108
chimesFF: 	6 5 6 -0.19108
chimesFF: 	6 6 5 -0.19108
chimesFF: 	5 6 7 -0.00623
chimesFF: 	6 5 7 -0.00623
chimesFF: 	5 7 6 -0.00623
chimesFF: 	7 5 6 -0.00623
chimesFF: 	6 7 5 -0.00623
chimesFF: 	7 6 5 -0.00623
chimesFF: 	5 7 7 -0.14954
chimesFF: 	7 5 7 -0.14954
chimesFF: 	7 7 5 -0.14954
chimesFF: 	6 6 7 0.01786
chimesFF: 	6 7 6 0.01786
chimesFF: 	7 6 6 0.01786
chimesFF: 	6 7 7 -0.19675
chimesFF: 	7 6 7 -0.19675
chimesFF: 	7 7 6 -0.19675
chimesFF: 	7 7 7 -0.33651
chimesFF: Built the following 3-body pair "slow" map:
chimesFF: 	3 HHHHHH
chimesFF: 	2 HHNHNH
chimesFF: 	2 NHHHNH
chimesFF: 	2 NHNHHH
chimesFF: 	1 NHNHNN
chimesFF: 	1 NHNNNH
chimesFF: 	1 NNNHNH
chimesFF: 	0 NNNNNN
chimesFF: Built the following 3-body pair "fast" map:
chimesFF: 	0 0
chimesFF: 	1 1
chimesFF: 	2 1
chimesFF: 	3 2
chimesFF: 	4 1
chimesFF: 	5 2
chimesFF: 	6 2
chimesFF: 	7 3
chimesFF: Set the following special 3-body outer cutoffs: 
chimesFF: 	0 5.00000 5.00000 5.00000
chimesFF: 	1 5.00000 5.00000 5.00000
chimesFF: 	2 5.00000 5.00000 5.00000
chimesFF: 	3 5.00000 5.00000 5.00000
chimesFF: Read 4B parameters for quadruplets: 0 N N N N
chimesFF: 	0 0 1 0 1 2 7.17194
chimesFF: 	0 1 0 1 0 2 7.17194
chimesFF: 	0 0 1 0 2 1 7.17194
chimesFF: 	0 1 0 2 0 1 7.17194
chimesFF: 	1 0 0 1 2 0 7.17194
chimesFF: 	1 0 0 2 1 0 7.17194
chimesFF: 	0 0 2 0 1 1 7.17194
chimesFF: 	0 2 0 1 0 1 7.17194
chimesFF: 	2 0 0 1 1 0 7.17194
chimesFF: 	1 1 2 0 0 0 7.17194
chimesFF: 	1 2 1 0 0 0 7.17194
chimesFF: 	2 1 1 0 0 0 7.17194
chimesFF: 	0 0 1 0 1 3 14.45552
chimesFF: 	0 1 0 1 0 3 14.45552
chimesFF: 	0 0 1 0 3 1 14.45552
chimesFF: 	0 1 0 3 0 1 14.45552
chimesFF: 	1 0 0 1 3 0 14.45552
chimesFF: 	1 0 0 3 1 0 14.45552
chimesFF: 	0 0 3 0 1 1 14.45552
chimesFF: 	0 3 0 1 0 1 14.45552
chimesFF: 	3 0 0 1 1 0 14.45552
chimesFF: 	1 1 3 0 0 0 14.45552
chimesFF: 	1 3 1 0 0 0 14.45552
chimesFF: 	3 1 1 0 0 0 14.45552
chimesFF: 	0 0 1 0 2 2 2.63747
chimesFF: 	0 1 0 2 0 2 2.63747
chimesFF: 	1 0 0 2 2 0 2.63747
chimesFF: 	0 0 2 0 1 2 2.63747
chimesFF: 	0 2 0 1 0 2 2.63747
chimesFF: 	0 0 2 0 2 1 2.63747
chimesFF: 	0 2 0 2 0 1 2.63747
chimesFF: 	2 0 0 1 2 0 2.63747
chimesFF: 	2 0 0 2 1 0 2.63747
chimesFF: 	1 2 2 0 0 0 2.63747
chimesFF: 	2 1 2 0 0 0 2.63747
chimesFF: 	2 2 1 0 0 0 2.63747
chimesFF: 	0 0 1 1 0 2 0.90283
chimesFF: 	0 1 0 0 1 2 0.90283
chimesFF: 	0 0 1 1 2 0 0.90283
chimesFF: 	0 1 0 2 1 0 0.90283
chimesFF: 	1 0 0 0 2 1 0.90283
chimesFF: 	1 0 0 2 0 1 0.90283
chimesFF: 	0 1 2 0 1 0 0.90283
chimesFF: 	0 2 1 1 0 0 0.90283
chimesFF: 	1 0 2 0 0 1 0.90283
chimesFF: 	1 2 0 0 0 1 0.90283
chimesFF: 	2 0 1 1 0 0 0.90283
chimesFF: 	2 1 0 0 1 0 0.90283
chimesFF: 	0 0 1 1 0 3 -7.98199
chimesFF: 	0 1 0 0 1 3 -7.98199
chimesFF: 	0 0 1 1 3 0 -7.98199
chimesFF: 	0 1 0 3 1 0 -7.98199
chimesFF: 	1 0 0 0 3 1 -7.98199
chimesFF: 	1 0 0 3 0 1 -7.98199
chimesFF: 	0 1 3 0 1 0 -7.98199
chimesFF: 	0 3 1 1 0 0 -7.98199
chimesFF: 	1 0 3 0 0 1 -7.98199
chimesFF: 	1 3 0 0 0 1 -7.98199
chimesFF: 	3 0 1 1 0 0 -7.98199
chimesFF: 	3 1 0 0 1 0 -7.98199
chimesFF: 	0 0 1 1 1 1 -2.93894
chimesFF: 	0 1 0 1 1 1 -2.93894
chimesFF: 	1 0 0 1 1 1 -2.93894
chimesFF: 	0 1 1 0 1 1 -2.93894
chimesFF: 	0 1 1 1 0 1 -2.93894
chimesFF: 	1 0 1 0 1 1 -2.93894
chimesFF: 	1 1 0 1 0 1 -2.93894
chimesFF: 	1 0 1 1 1 0 -2.93894
chimesFF: 	1 1 0 1 1 0 -2.93894
chimesFF: 	1 1 1 0 0 1 -2.93894
chimesFF: 	1 1 1 0 1 0 -2.93894
chimesFF: 	1 1 1 1 0 0 -2.93894
chimesFF: 	0 0 1 1 1 3 4.90977
chimesFF: 	0 1 0 1 1 3 4.90977
chimesFF: 	0 0 1 1 3 1 4.90977
chimesFF: 	0 1 0 3 1 1 4.90977
chimesFF: 	1 0 0 1 3 1 4.90977
chimesFF: 	1 0 0 3 1 1 4.90977
chimesFF: 	0 1 1 0 1 3 4.90977
chimesFF: 	0 1 1 1 0 3 4.90977
chimesFF: 	1 0 1 0 3 1 4.90977
chimesFF: 	1 1 0 3 0 1 4.90977
chimesFF: 	1 0 1 1 3 0 4.90977
chimesFF: 	1 1 0 3 1 0 4.90977
chimesFF: 	0 1 3 0 1 1 4.90977
chimesFF: 	0 3 1 1 0 1 4.90977
chimesFF: 	1 0 3 0 1 1 4.90977
chimesFF: 	1 3 0 1 0 1 4.90977
chimesFF: 	3 0 1 1 1 0 4.90977
chimesFF: 	3 1 0 1 1 0 4.90977
chimesFF: 	1 1 3 0 0 1 4.90977
chimesFF: 	1 3 1 0 0 1 4.90977
chimesFF: 	1 1 3 0 1 0 4.90977
chimesFF: 	1 3 1 1 0 0 4.90977
chimesFF: 	3 1 1 0 1 0 4.90977
chimesFF: 	3 1 1 1 0 0 4.90977
chimesFF: 	0 0 1 1 2 3 6.14175
chimesFF: 	0 1 0 2 1 3 6.14175
chimesFF: 	0 0 1 1 3 2 6.14175
chimesFF: 	0 1 0 3 1 2 6.14175
chimesFF: 	1 0 0 2 3 1 6.14175
chimesFF: 	1 0 0 3 2 1 6.14175
chimesFF: 	0 1 2 0 1 3 6.14175
chimesFF: 	0 2 1 1 0 3 6.14175
chimesFF: 	1 0 2 0 3 1 6.14175
chimesFF: 	1 2 0 3 0 1 6.14175
chimesFF: 	2 0 1 1 3 0 6.14175
chimesFF: 	2 1 0 3 1 0 6.14175
chimesFF: 	0 1 3 0 1 2 6.14175
chimesFF: 	0 3 1 1 0 2 6.14175
chimesFF: 	1 0 3 0 2 1 6.14175
chimesFF: 	1 3 0 2 0 1 6.14175
chimesFF: 	3 0 1 1 2 0 6.14175
chimesFF: 	3 1 0 2 1 0 6.14175
chimesFF: 	1 2 3 0 0 1 6.14175
chimesFF: 	1 3 2 0 0 1 6.14175
chimesFF: 	2 1 3 0 1 0 6.14175
chimesFF: 	2 3 1 1 0 0 6.14175
chimesFF: 	3 1 2 0 1 0 6.14175
chimesFF: 	3 2 1 1 0 0 6.14175
chimesFF: 	0 0 1 2 0 1 0.84264
chimesFF: 	0 1 0 0 2 1 0.84264
chimesFF: 	0 0 1 2 1 0 0.84264
chimesFF: 	0 1 0 1 2 0 0.84264
chimesFF: 	1 0 0 0 1 2 0.84264
chimesFF: 	1 0 0 1 0 2 0.84264
chimesFF: 	0 2 0 0 1 1 0.84264
chimesFF: 	0 0 2 1 0 1 0.84264
chimesFF: 	2 0 0 0 1 1 0.84264
chimesFF: 	2 0 0 1 0 1 0.84264
chimesFF: 	0 0 2 1 1 0 0.84264
chimesFF: 	0 2 0 1 1 0 0.84264
chimesFF: 	0 2 1 0 1 0 0.84264
chimesFF: 	0 1 2 1 0 0 0.84264
chimesFF: 	2 0 1 0 0 1 0.84264
chimesFF: 	2 1 0 0 0 1 0.84264
chimesFF: 	1 0 2 1 0 0 0.84264
chimesFF: 	1 2 0 0 1 0 0.84264
chimesFF: 	1 0 1 0 0 2 0.84264
chimesFF: 	1 1 0 0 0 2 0.84264
chimesFF: 	0 1 1 0 2 0 0.84264
chimesFF: 	0 1 1 2 0 0 0.84264
chimesFF: 	1 1 0 0 2 0 0.84264
chimesFF: 	1 0 1 2 0 0 0.84264
chimesFF: 	0 0 1 2 0 2 0.04996
chimesFF: 	0 1 0 0 2 2 0.04996
chimesFF: 	0 0 1 2 2 0 0.04996
chimesFF: 	0 1 0 2 2 0 0.04996
chimesFF: 	1 0 0 0 2 2 0.04996
chimesFF: 	1 0 0 2 0 2 0.04996
chimesFF: 	0 2 0 0 1 2 0.04996
chimesFF: 	0 0 2 1 0 2 0.04996
chimesFF: 	2 0 0 0 2 1 0.04996
chimesFF: 	2 0 0 2 0 1 0.04996
chimesFF: 	0 0 2 1 2 0 0.04996
chimesFF: 	0 2 0 2 1 0 0.04996
chimesFF: 	0 2 2 0 1 0 0.04996
chimesFF: 	0 2 2 1 0 0 0.04996
chimesFF: 	2 0 2 0 0 1 0.04996
chimesFF: 	2 2 0 0 0 1 0.04996
chimesFF: 	2 0 2 1 0 0 0.04996
chimesFF: 	2 2 0 0 1 0 0.04996
chimesFF: 	1 0 2 0 0 2 0.04996
chimesFF: 	1 2 0 0 0 2 0.04996
chimesFF: 	0 1 2 0 2 0 0.04996
chimesFF: 	0 2 1 2 0 0 0.04996
chimesFF: 	2 1 0 0 2 0 0.04996
chimesFF: 	2 0 1 2 0 0 0.04996
chimesFF: 	0 0 1 2 1 2 0.01515
chimesFF: 	0 1 0 1 2 2 0.01515
chimesFF: 	0 0 1 2 2 1 0.01515
chimesFF: 	0 1 0 2 2 1 0.01515
chimesFF: 	1 0 0 1 2 2 0.01515
chimesFF: 	1 0 0 2 1 2 0.01515
chimesFF: 	0 2 1 0 1 2 0.01515
chimesFF: 	0 1 2 1 0 2 0.01515
chimesFF: 	2 0 1 0 2 1 0.01515
chimesFF: 	2 1 0 2 0 1 0.01515
chimesFF: 	1 0 2 1 2 0 0.01515
chimesFF: 	1 2 0 2 1 0 0.01515
chimesFF: 	0 2 2 0 1 1 0.01515
chimesFF: 	0 2 2 1 0 1 0.01515
chimesFF: 	2 0 2 0 1 1 0.01515
chimesFF: 	2 2 0 1 0 1 0.01515
chimesFF: 	2 0 2 1 1 0 0.01515
chimesFF: 	2 2 0 1 1 0 0.01515
chimesFF: 	1 1 2 0 0 2 0.01515
chimesFF: 	1 2 1 0 0 2 0.01515
chimesFF: 	1 1 2 0 2 0 0.01515
chimesFF: 	1 2 1 2 0 0 0.01515
chimesFF: 	2 1 1 0 2 0 0.01515
chimesFF: 	2 1 1 2 0 0 0.01515
chimesFF: 	0 0 1 2 2 3 -0.44067
chimesFF: 	0 1 0 2 2 3 -0.44067
chimesFF: 	0 0 1 2 3 2 -0.44067
chimesFF: 	0 1 0 3 2 2 -0.44067
chimesFF: 	1 0 0 2 3 2 -0.44067
chimesFF: 	1 0 0 3 2 2 -0.44067
chimesFF: 	0 2 2 0 1 3 -0.44067
chimesFF: 	0 2 2 1 0 3 -0.44067
chimesFF: 	2 0 2 0 3 1 -0.44067
chimesFF: 	2 2 0 3 0 1 -0.44067
chimesFF: 	2 0 2 1 3 0 -0.44067
chimesFF: 	2 2 0 3 1 0 -0.44067
chimesFF: 	0 2 3 0 1 2 -0.44067
chimesFF: 	0 3 2 1 0 2 -0.44067
chimesFF: 	2 0 3 0 2 1 -0.44067
chimesFF: 	2 3 0 2 0 1 -0.44067
chimesFF: 	3 0 2 1 2 0 -0.44067
chimesFF: 	3 2 0 2 1 0 -0.44067
chimesFF: 	1 2 3 0 0 2 -0.44067
chimesFF: 	1 3 2 0 0 2 -0.44067
chimesFF: 	2 1 3 0 2 0 -0.44067
chimesFF: 	2 3 1 2 0 0 -0.44067
chimesFF: 	3 1 2 0 2 0 -0.44067
chimesFF: 	3 2 1 2 0 0 -0.44067
chimesFF: 	0 0 1 2 3 3 -4.91470
chimesFF: 	0 1 0 3 2 3 -4.91470
chimesFF: 	1 0 0 3 3 2 -4.91470
chimesFF: 	0 2 3 0 1 3 -4.91470
chimesFF: 	0 3 2 1 0 3 -4.91470
chimesFF: 	2 0 3 0 3 1 -4.91470
chimesFF: 	2 3 0 3 0 1 -4.91470
chimesFF: 	3 0 2 1 3 0 -4.91470
chimesFF: 	3 2 0 3 1 0 -4.91470
chimesFF: 	1 3 3 0 0 2 -4.91470
chimesFF: 	3 1 3 0 2 0 -4.91470
chimesFF: 	3 3 1 2 0 0 -4.91470
chimesFF: 	0 0 1 3 0 0 -0.44315
chimesFF: 	0 1 0 0 3 0 -0.44315
chimesFF: 	1 0 0 0 0 3 -0.44315
chimesFF: 	0 3 0 0 1 0 -0.44315
chimesFF: 	0 0 3 1 0 0 -0.44315
chimesFF: 	3 0 0 0 0 1 -0.44315
chimesFF: 	0 0 1 3 0 2 9.92881
chimesFF: 	0 1 0 0 3 2 9.92881
chimesFF: 	0 0 1 3 2 0 9.92881
chimesFF: 	0 1 0 2 3 0 9.92881
chimesFF: 	1 0 0 0 2 3 9.92881
chimesFF: 	1 0 0 2 0 3 9.92881
chimesFF: 	0 3 0 0 1 2 9.92881
chimesFF: 	0 0 3 1 0 2 9.92881
chimesFF: 	3 0 0 0 2 1 9.92881
chimesFF: 	3 0 0 2 0 1 9.92881
chimesFF: 	0 0 3 1 2 0 9.92881
chimesFF: 	0 3 0 2 1 0 9.92881
chimesFF: 	0 3 2 0 1 0 9.92881
chimesFF: 	0 2 3 1 0 0 9.92881
chimesFF: 	3 0 2 0 0 1 9.92881
chimesFF: 	3 2 0 0 0 1 9.92881
chimesFF: 	2 0 3 1 0 0 9.92881
chimesFF: 	2 3 0 0 1 0 9.92881
chimesFF: 	1 0 2 0 0 3 9.92881
chimesFF: 	1 2 0 0 0 3 9.92881
chimesFF: 	0 1 2 0 3 0 9.92881
chimesFF: 	0 2 1 3 0 0 9.92881
chimesFF: 	2 1 0 0 3 0 9.92881
chimesFF: 	2 0 1 3 0 0 9.92881
chimesFF: 	0 0 1 3 0 3 2.00946
chimesFF: 	0 1 0 0 3 3 2.00946
chimesFF: 	0 0 1 3 3 0 2.00946
chimesFF: 	0 1 0 3 3 0 2.00946
chimesFF: 	1 0 0 0 3 3 2.00946
chimesFF: 	1 0 0 3 0 3 2.00946
chimesFF: 	0 3 0 0 1 3 2.00946
chimesFF: 	0 0 3 1 0 3 2.00946
chimesFF: 	3 0 0 0 3 1 2.00946
chimesFF: 	3 0 0 3 0 1 2.00946
chimesFF: 	0 0 3 1 3 0 2.00946
chimesFF: 	0 3 0 3 1 0 2.00946
chimesFF: 	0 3 3 0 1 0 2.00946
chimesFF: 	0 3 3 1 0 0 2.00946
chimesFF: 	3 0 3 0 0 1 2.00946
chimesFF: 	3 3 0 0 0 1 2.00946
chimesFF: 	3 0 3 1 0 0 2.00946
chimesFF: 	3 3 0 0 1 0 2.00946
chimesFF: 	1 0 3 0 0 3 2.00946
chimesFF: 	1 3 0 0 0 3 2.00946
chimesFF: 	0 1 3 0 3 0 2.00946
chimesFF: 	0 3 1 3 0 0 2.00946
chimesFF: 	3 1 0 0 3 0 2.00946
chimesFF: 	3 0 1 3 0 0 2.00946
chimesFF: 	0 0 1 3 1 1 8.79533
chimesFF: 	0 1 0 1 3 1 8.79533
chimesFF: 	1 0 0 1 1 3 8.79533
chimesFF: 	0 3 1 0 1 1 8.79533
chimesFF: 	0 1 3 1 0 1 8.79533
chimesFF: 	3 0 1 0 1 1 8.79533
chimesFF: 	3 1 0 1 0 1 8.79533
chimesFF: 	1 0 3 1 1 0 8.79533
chimesFF: 	1 3 0 1 1 0 8.79533
chimesFF: 	1 1 1 0 0 3 8.79533
chimesFF: 	1 1 1 0 3 0 8.79533
chimesFF: 	1 1 1 3 0 0 8.79533
chimesFF: 	0 0 1 3 1 3 -2.74767
chimesFF: 	0 1 0 1 3 3 -2.74767
chimesFF: 	0 0 1 3 3 1 -2.74767
chimesFF: 	0 1 0 3 3 1 -2.74767
chimesFF: 	1 0 0 1 3 3 -2.74767
chimesFF: 	1 0 0 3 1 3 -2.74767
chimesFF: 	0 3 1 0 1 3 -2.74767
chimesFF: 	0 1 3 1 0 3 -2.74767
chimesFF: 	3 0 1 0 3 1 -2.74767
chimesFF: 	3 1 0 3 0 1 -2.74767
chimesFF: 	1 0 3 1 3 0 -2.74767
chimesFF: 	1 3 0 3 1 0 -2.74767
chimesFF: 	0 3 3 0 1 1 -2.74767
chimesFF: 	0 3 3 1 0 1 -2.74767
chimesFF: 	3 0 3 0 1 1 -2.74767
chimesFF: 	3 3 0 1 0 1 -2.74767
chimesFF: 	3 0 3 1 1 0 -2.74767
chimesFF: 	3 3 0 1 1 0 -2.74767
chimesFF: 	1 1 3 0 0 3 -2.74767
chimesFF: 	1 3 1 0 0 3 -2.74767
chimesFF: 	1 1 3 0 3 0 -2.74767
chimesFF: 	1 3 1 3 0 0 -2.74767
chimesFF: 	3 1 1 0 3 0 -2.74767
chimesFF: 	3 1 1 3 0 0 -2.74767
chimesFF: 	0 0 2 1 1 3 -7.70025
chimesFF: 	0 2 0 1 1 3 -7.70025
chimesFF: 	0 0 2 1 3 1 -7.70025
chimesFF: 	0 2 0 3 1 1 -7.70025
chimesFF: 	2 0 0 1 3 1 -7.70025
chimesFF: 	2 0 0 3 1 1 -7.70025
chimesFF: 	0 1 1 0 2 3 -7.70025
chimesFF: 	0 1 1 2 0 3 -7.70025
chimesFF: 	1 0 1 0 3 2 -7.70025
chimesFF: 	1 1 0 3 0 2 -7.70025
chimesFF: 	1 0 1 2 3 0 -7.70025
chimesFF: 	1 1 0 3 2 0 -7.70025
chimesFF: 	0 1 3 0 2 1 -7.70025
chimesFF: 	0 3 1 2 0 1 -7.70025
chimesFF: 	1 0 3 0 1 2 -7.70025
chimesFF: 	1 3 0 1 0 2 -7.70025
chimesFF: 	3 0 1 2 1 0 -7.70025
chimesFF: 	3 1 0 1 2 0 -7.70025
chimesFF: 	2 1 3 0 0 1 -7.70025
chimesFF: 	2 3 1 0 0 1 -7.70025
chimesFF: 	1 2 3 0 1 0 -7.70025
chimesFF: 	1 3 2 1 0 0 -7.70025
chimesFF: 	3 2 1 0 1 0 -7.70025
chimesFF: 	3 1 2 1 0 0 -7.70025
chimesFF: 	0 0 2 1 2 2 7.53841
chimesFF: 	0 2 0 2 1 2 7.53841
chimesFF: 	2 0 0 2 2 1 7.53841
chimesFF: 	0 1 2 0 2 2 7.53841
chimesFF: 	0 2 1 2 0 2 7.53841
chimesFF: 	1 0 2 0 2 2 7.53841
chimesFF: 	1 2 0 2 0 2 7.53841
chimesFF: 	2 0 1 2 2 0 7.53841
chimesFF: 	2 1 0 2 2 0 7.53841
chimesFF: 	2 2 2 0 0 1 7.53841
chimesFF: 	2 2 2 0 1 0 7.53841
chimesFF: 	2 2 2 1 0 0 7.53841
chimesFF: 	0 0 2 1 2 3 2.22623
chimesFF: 	0 2 0 2 1 3 2.22623
chimesFF: 	0 0 2 1 3 2 2.22623
chimesFF: 	0 2 0 3 1 2 2.22623
chimesFF: 	2 0 0 2 3 1 2.22623
chimesFF: 	2 0 0 3 2 1 2.22623
chimesFF: 	0 1 2 0 2 3 2.22623
chimesFF: 	0 2 1 2 0 3 2.22623
chimesFF: 	1 0 2 0 3 2 2.22623
chimesFF: 	1 2 0 3 0 2 2.22623
chimesFF: 	2 0 1 2 3 0 2.22623
chimesFF: 	2 1 0 3 2 0 2.22623
chimesFF: 	0 1 3 0 2 2 2.22623
chimesFF: 	0 3 1 2 0 2 2.22623
chimesFF: 	1 0 3 0 2 2 2.22623
chimesFF: 	1 3 0 2 0 2 2.22623
chimesFF: 	3 0 1 2 2 0 2.22623
chimesFF: 	3 1 0 2 2 0 2.22623
chimesFF: 	2 2 3 0 0 1 2.22623
chimesFF: 	2 3 2 0 0 1 2.22623
chimesFF: 	2 2 3 0 1 0 2.22623
chimesFF: 	2 3 2 1 0 0 2.22623
chimesFF: 	3 2 2 0 1 0 2.22623
chimesFF: 	3 2 2 1 0 0 2.22623
chimesFF: 	0 0 2 2 0 0 -5.37504
chimesFF: 	0 2 0 0 2 0 -5.37504
chimesFF: 	2 0 0 0 0 2 -5.37504
chimesFF: 	0 0 2 2 0 2 0.80783
chimesFF: 	0 2 0 0 2 2 0.80783
chimesFF: 	0 0 2 2 2 0 0.80783
chimesFF: 	0 2 0 2 2 0 0.80783
chimesFF: 	2 0 0 0 2 2 0.80783
chimesFF: 	2 0 0 2 0 2 0.80783
chimesFF: 	0 2 2 0 2 0 0.80783
chimesFF: 	0 2 2 2 0 0 0.80783
chimesFF: 	2 0 2 0 0 2 0.80783
chimesFF: 	2 2 0 0 0 2 0.80783
chimesFF: 	2 0 2 2 0 0 0.80783
chimesFF: 	2 2 0 0 2 0 0.80783
chimesFF: 	0 0 2 2 3 3 0.70302
chimesFF: 	0 2 0 3 2 3 0.70302
chimesFF: 	2 0 0 3 3 2 0.70302
chimesFF: 	0 2 3 0 2 3 0.70302
chimesFF: 	0 3 2 2 0 3 0.70302
chimesFF: 	2 0 3 0 3 2 0.70302
chimesFF: 	2 3 0 3 0 2 0.70302
chimesFF: 	3 0 2 2 3 0 0.70302
chimesFF: 	3 2 0 3 2 0 0.70302
chimesFF: 	2 3 3 0 0 2 0.70302
chimesFF: 	3 2 3 0 2 0 0.70302
chimesFF: 	3 3 2 2 0 0 0.70302
chimesFF: 	0 0 2 3 0 1 -0.26659
chimesFF: 	0 2 0 0 3 1 -0.26659
chimesFF: 	0 0 2 3 1 0 -0.26659
chimesFF: 	0 2 0 1 3 0 -0.26659
chimesFF: 	2 0 0 0 1 3 -0.26659
chimesFF: 	2 0 0 1 0 3 -0.26659
chimesFF: 	0 3 0 0 2 1 -0.26659
chimesFF: 	0 0 3 2 0 1 -0.26659
chimesFF: 	3 0 0 0 1 2 -0.26659
chimesFF: 	3 0 0 1 0 2 -0.26659
chimesFF: 	0 0 3 2 1 0 -0.26659
chimesFF: 	0 3 0 1 2 0 -0.26659
chimesFF: 	0 3 1 0 2 0 -0.26659
chimesFF: 	0 1 3 2 0 0 -0.26659
chimesFF: 	3 0 1 0 0 2 -0.26659
chimesFF: 	3 1 0 0 0 2 -0.26659
chimesFF: 	1 0 3 2 0 0 -0.26659
chimesFF: 	1 3 0 0 2 0 -0.26659
chimesFF: 	2 0 1 0 0 3 -0.26659
chimesFF: 	2 1 0 0 0 3 -0.26659
chimesFF: 	0 2 1 0 3 0 -0.26659
chimesFF: 	0 1 2 3 0 0 -0.26659
chimesFF: 	1 2 0 0 3 0 -0.26659
chimesFF: 	1 0 2 3 0 0 -0.26659
chimesFF: 	0 0 2 3 0 3 -1.07086
chimesFF: 	0 2 0 0 3 3 -1.07086
chimesFF: 	0 0 2 3 3 0 -1.07086
chimesFF: 	0 2 0 3 3 0 -1.07086
chimesFF: 	2 0 0 0 3 3 -1.07086
chimesFF: 	2 0 0 3 0 3 -1.07086
chimesFF: 	0 3 0 0 2 3 -1.07086
chimesFF: 	0 0 3 2 0 3 -1.07086
chimesFF: 	3 0 0 0 3 2 -1.07086
chimesFF: 	3 0 0 3 0 2 -1.07086
chimesFF: 	0 0 3 2 3 0 -1.07086
chimesFF: 	0 3 0 3 2 0 -1.07086
chimesFF: 	0 3 3 0 2 0 -1.07086
chimesFF: 	0 3 3 2 0 0 -1.07086
chimesFF: 	3 0 3 0 0 2 -1.07086
chimesFF: 	3 3 0 0 0 2 -1.07086
chimesFF: 	3 0 3 2 0 0 -1.07086
chimesFF: 	3 3 0 0 2 0 -1.07086
chimesFF: 	2 0 3 0 0 3 -1.07086
chimesFF: 	2 3 0 0 0 3 -1.07086
chimesFF: 	0 2 3 0 3 0 -1.07086
chimesFF: 	0 3 2 3 0 0 -1.07086
chimesFF: 	3 2 0 0 3 0 -1.07086
chimesFF: 	3 0 2 3 0 0 -1.07086
chimesFF: 	0 0 2 3 1 3 -0.43028
chimesFF: 	0 2 0 1 3 3 -0.43028
chimesFF: 	0 0 2 3 3 1 -0.43028
chimesFF: 	0 2 0 3 3 1 -0.43028
chimesFF: 	2 0 0 1 3 3 -0.43028
chimesFF: 	2 0 0 3 1 3 -0.43028
chimesFF: 	0 3 1 0 2 3 -0.43028
chimesFF: 	0 1 3 2 0 3 -0.43028
chimesFF: 	3 0 1 0 3 2 -0.43028
chimesFF: 	3 1 0 3 0 2 -0.43028
chimesFF: 	1 0 3 2 3 0 -0.43028
chimesFF: 	1 3 0 3 2 0 -0.43028
chimesFF: 	0 3 3 0 2 1 -0.43028
chimesFF: 	0 3 3 2 0 1 -0.43028
chimesFF: 	3 0 3 0 1 2 -0.43028
chimesFF: 	3 3 0 1 0 2 -0.43028
chimesFF: 	3 0 3 2 1 0 -0.43028
chimesFF: 	3 3 0 1 2 0 -0.43028
chimesFF: 	2 1 3 0 0 3 -0.43028
chimesFF: 	2 3 1 0 0 3 -0.43028
chimesFF: 	1 2 3 0 3 0 -0.43028
chimesFF: 	1 3 2 3 0 0 -0.43028
chimesFF: 	3 2 1 0 3 0 -0.43028
chimesFF: 	3 1 2 3 0 0 -0.43028
chimesFF: 	0 0 2 3 3 3 1.61744
chimesFF: 	0 2 0 3 3 3 1.61744
chimesFF: 	2 0 0 3 3 3 1.61744
chimesFF: 	0 3 3 0 2 3 1.61744
chimesFF: 	0 3 3 2 0 3 1.61744
chimesFF: 	3 0 3 0 3 2 1.61744
chimesFF: 	3 3 0 3 0 2 1.61744
chimesFF: 	3 0 3 2 3 0 1.61744
chimesFF: 	3 3 0 3 2 0 1.61744
chimesFF: 	2 3 3 0 0 3 1.61744
chimesFF: 	3 2 3 0 3 0 1.61744
chimesFF: 	3 3 2 3 0 0 1.61744
chimesFF: 	0 0 3 1 1 2 -1.36540
chimesFF: 	0 3 0 1 1 2 -1.36540
chimesFF: 	0 0 3 1 2 1 -1.36540
chimesFF: 	0 3 0 2 1 1 -1.36540
chimesFF: 	3 0 0 1 2 1 -1.36540
chimesFF: 	3 0 0 2 1 1 -1.36540
chimesFF: 	0 1 1 0 3 2 -1.36540
chimesFF: 	0 1 1 3 0 2 -1.36540
chimesFF: 	1 0 1 0 2 3 -1.36540
chimesFF: 	1 1 0 2 0 3 -1.36540
chimesFF: 	1 0 1 3 2 0 -1.36540
chimesFF: 	1 1 0 2 3 0 -1.36540
chimesFF: 	0 1 2 0 3 1 -1.36540
chimesFF: 	0 2 1 3 0 1 -1.36540
chimesFF: 	1 0 2 0 1 3 -1.36540
chimesFF: 	1 2 0 1 0 3 -1.36540
chimesFF: 	2 0 1 3 1 0 -1.36540
chimesFF: 	2 1 0 1 3 0 -1.36540
chimesFF: 	3 1 2 0 0 1 -1.36540
chimesFF: 	3 2 1 0 0 1 -1.36540
chimesFF: 	1 3 2 0 1 0 -1.36540
chimesFF: 	1 2 3 1 0 0 -1.36540
chimesFF: 	2 3 1 0 1 0 -1.36540
chimesFF: 	2 1 3 1 0 0 -1.36540
chimesFF: 	0 0 3 1 2 3 -0.52018
chimesFF: 	0 3 0 2 1 3 -0.52018
chimesFF: 	0 0 3 1 3 2 -0.52018
chimesFF: 	0 3 0 3 1 2 -0.52018
chimesFF: 	3 0 0 2 3 1 -0.52018
chimesFF: 	3 0 0 3 2 1 -0.52018
chimesFF: 	0 1 2 0 3 3 -0.52018
chimesFF: 	0 2 1 3 0 3 -0.52018
chimesFF: 	1 0 2 0 3 3 -0.52018
chimesFF: 	1 2 0 3 0 3 -0.52018
chimesFF: 	2 0 1 3 3 0 -0.52018
chimesFF: 	2 1 0 3 3 0 -0.52018
chimesFF: 	0 1 3 0 3 2 -0.52018
chimesFF: 	0 3 1 3 0 2 -0.52018
chimesFF: 	1 0 3 0 2 3 -0.52018
chimesFF: 	1 3 0 2 0 3 -0.52018
chimesFF: 	3 0 1 3 2 0 -0.52018
chimesFF: 	3 1 0 2 3 0 -0.52018
chimesFF: 	3 2 3 0 0 1 -0.52018
chimesFF: 	3 3 2 0 0 1 -0.52018
chimesFF: 	2 3 3 0 1 0 -0.52018
chimesFF: 	2 3 3 1 0 0 -0.52018
chimesFF: 	3 3 2 0 1 0 -0.52018
chimesFF: 	3 2 3 1 0 0 -0.52018
chimesFF: 	0 0 3 2 1 3 0.80318
chimesFF: 	0 3 0 1 2 3 0.80318
chimesFF: 	0 0 3 2 3 1 0.80318
chimesFF: 	0 3 0 3 2 1 0.80318
chimesFF: 	3 0 0 1 3 2 0.80318
chimesFF: 	3 0 0 3 1 2 0.80318
chimesFF: 	0 2 1 0 3 3 0.80318
chimesFF: 	0 1 2 3 0 3 0.80318
chimesFF: 	2 0 1 0 3 3 0.80318
chimesFF: 	2 1 0 3 0 3 0.80318
chimesFF: 	1 0 2 3 3 0 0.80318
chimesFF: 	1 2 0 3 3 0 0.80318
chimesFF: 	0 2 3 0 3 1 0.80318
chimesFF: 	0 3 2 3 0 1 0.80318
chimesFF: 	2 0 3 0 1 3 0.80318
chimesFF: 	2 3 0 1 0 3 0.80318
chimesFF: 	3 0 2 3 1 0 0.80318
chimesFF: 	3 2 0 1 3 0 0.80318
chimesFF: 	3 1 3 0 0 2 0.80318
chimesFF: 	3 3 1 0 0 2 0.80318
chimesFF: 	1 3 3 0 2 0 0.80318
chimesFF: 	1 3 3 2 0 0 0.80318
chimesFF: 	3 3 1 0 2 0 0.80318
chimesFF: 	3 1 3 2 0 0 0.80318
chimesFF: 	0 0 3 2 2 3 1.10702
chimesFF: 	0 3 0 2 2 3 1.10702
chimesFF: 	0 0 3 2 3 2 1.10702
chimesFF: 	0 3 0 3 2 2 1.10702
chimesFF: 	3 0 0 2 3 2 1.10702
chimesFF: 	3 0 0 3 2 2 1.10702
chimesFF: 	0 2 2 0 3 3 1.10702
chimesFF: 	0 2 2 3 0 3 1.10702
chimesFF: 	2 0 2 0 3 3 1.10702
chimesFF: 	2 2 0 3 0 3 1.10702
chimesFF: 	2 0 2 3 3 0 1.10702
chimesFF: 	2 2 0 3 3 0 1.10702
chimesFF: 	0 2 3 0 3 2 1.10702
chimesFF: 	0 3 2 3 0 2 1.10702
chimesFF: 	2 0 3 0 2 3 1.10702
chimesFF: 	2 3 0 2 0 3 1.10702
chimesFF: 	3 0 2 3 2 0 1.10702
chimesFF: 	3 2 0 2 3 0 1.10702
chimesFF: 	3 2 3 0 0 2 1.10702
chimesFF: 	3 3 2 0 0 2 1.10702
chimesFF: 	2 3 3 0 2 0 1.10702
chimesFF: 	2 3 3 2 0 0 1.10702
chimesFF: 	3 3 2 0 2 0 1.10702
chimesFF: 	3 2 3 2 0 0 1.10702
chimesFF: 	0 0 3 3 0 0 0.13094
chimesFF: 	0 3 0 0 3 0 0.13094
chimesFF: 	3 0 0 0 0 3 0.13094
chimesFF: 	0 0 3 3 0 2 4.04681
chimesFF: 	0 3 0 0 3 2 4.04681
chimesFF: 	0 0 3 3 2 0 4.04681
chimesFF: 	0 3 0 2 3 0 4.04681
chimesFF: 	3 0 0 0 2 3 4.04681
chimesFF: 	3 0 0 2 0 3 4.04681
chimesFF: 	0 3 2 0 3 0 4.04681
chimesFF: 	0 2 3 3 0 0 4.04681
chimesFF: 	3 0 2 0 0 3 4.04681
chimesFF: 	3 2 0 0 0 3 4.04681
chimesFF: 	2 0 3 3 0 0 4.04681
chimesFF: 	2 3 0 0 3 0 4.04681
chimesFF: 	0 0 3 3 0 3 0.74149
chimesFF: 	0 3 0 0 3 3 0.74149
chimesFF: 	0 0 3 3 3 0 0.74149
chimesFF: 	0 3 0 3 3 0 0.74149
chimesFF: 	3 0 0 0 3 3 0.74149
chimesFF: 	3 0 0 3 0 3 0.74149
chimesFF: 	0 3 3 0 3 0 0.74149
chimesFF: 	0 3 3 3 0 0 0.74149
chimesFF: 	3 0 3 0 0 3 0.74149
chimesFF: 	3 3 0 0 0 3 0.74149
chimesFF: 	3 0 3 3 0 0 0.74149
chimesFF: 	3 3 0 0 3 0 0.74149
chimesFF: 	0 0 3 3 2 2 -2.62313
chimesFF: 	0 3 0 2 3 2 -2.62313
chimesFF: 	3 0 0 2 2 3 -2.62313
chimesFF: 	0 3 2 0 3 2 -2.62313
chimesFF: 	0 2 3 3 0 2 -2.62313
chimesFF: 	3 0 2 0 2 3 -2.62313
chimesFF: 	3 2 0 2 0 3 -2.62313
chimesFF: 	2 0 3 3 2 0 -2.62313
chimesFF: 	2 3 0 2 3 0 -2.62313
chimesFF: 	3 2 2 0 0 3 -2.62313
chimesFF: 	2 3 2 0 3 0 -2.62313
chimesFF: 	2 2 3 3 0 0 -2.62313
chimesFF: 	0 0 3 3 3 3 0.61518
chimesFF: 	0 3 0 3 3 3 0.61518
chimesFF: 	3 0 0 3 3 3 0.61518
chimesFF: 	0 3 3 0 3 3 0.61518
chimesFF: 	0 3 3 3 0 3 0.61518
chimesFF: 	3 0 3 0 3 3 0.61518
chimesFF: 	3 3 0 3 0 3 0.61518
chimesFF: 	3 0 3 3 3 0 0.61518
chimesFF: 	3 3 0 3 3 0 0.61518
chimesFF: 	3 3 3 0 0 3 0.61518
chimesFF: 	3 3 3 0 3 0 0.61518
chimesFF: 	3 3 3 3 0 0 0.61518
chimesFF: 	0 1 1 1 2 0 -3.80302
chimesFF: 	0 1 1 2 1 0 -3.80302
chimesFF: 	1 0 1 1 0 2 -3.80302
chimesFF: 	1 1 0 0 1 2 -3.80302
chimesFF: 	1 0 1 2 0 1 -3.80302
chimesFF: 	1 1 0 0 2 1 -3.80302
chimesFF: 	0 1 2 1 1 0 -3.80302
chimesFF: 	0 2 1 1 1 0 -3.80302
chimesFF: 	1 0 2 1 0 1 -3.80302
chimesFF: 	1 2 0 0 1 1 -3.80302
chimesFF: 	2 0 1 1 0 1 -3.80302
chimesFF: 	2 1 0 0 1 1 -3.80302
chimesFF: 	0 1 1 1 3 0 -20.03156
chimesFF: 	0 1 1 3 1 0 -20.03156
chimesFF: 	1 0 1 1 0 3 -20.03156
chimesFF: 	1 1 0 0 1 3 -20.03156
chimesFF: 	1 0 1 3 0 1 -20.03156
chimesFF: 	1 1 0 0 3 1 -20.03156
chimesFF: 	0 1 3 1 1 0 -20.03156
chimesFF: 	0 3 1 1 1 0 -20.03156
chimesFF: 	1 0 3 1 0 1 -20.03156
chimesFF: 	1 3 0 0 1 1 -20.03156
chimesFF: 	3 0 1 1 0 1 -20.03156
chimesFF: 	3 1 0 0 1 1 -20.03156
chimesFF: 	0 1 1 1 3 3 -2.17881
chimesFF: 	0 1 1 3 1 3 -2.17881
chimesFF: 	1 0 1 1 3 3 -2.17881
chimesFF: 	1 1 0 3 1 3 -2.17881
chimesFF: 	1 0 1 3 3 1 -2.17881
chimesFF: 	1 1 0 3 3 1 -2.17881
chimesFF: 	0 1 3 1 1 3 -2.17881
chimesFF: 	0 3 1 1 1 3 -2.17881
chimesFF: 	1 0 3 1 3 1 -2.17881
chimesFF: 	1 3 0 3 1 1 -2.17881
chimesFF: 	3 0 1 1 3 1 -2.17881
chimesFF: 	3 1 0 3 1 1 -2.17881
chimesFF: 	1 1 3 0 1 3 -2.17881
chimesFF: 	1 3 1 1 0 3 -2.17881
chimesFF: 	1 1 3 0 3 1 -2.17881
chimesFF: 	1 3 1 3 0 1 -2.17881
chimesFF: 	3 1 1 1 3 0 -2.17881
chimesFF: 	3 1 1 3 1 0 -2.17881
chimesFF: 	1 3 3 0 1 1 -2.17881
chimesFF: 	1 3 3 1 0 1 -2.17881
chimesFF: 	3 1 3 0 1 1 -2.17881
chimesFF: 	3 3 1 1 0 1 -2.17881
chimesFF: 	3 1 3 1 1 0 -2.17881
chimesFF: 	3 3 1 1 1 0 -2.17881
chimesFF: 	0 1 1 2 3 0 4.44521
chimesFF: 	0 1 1 3 2 0 4.44521
chimesFF: 	1 0 1 2 0 3 4.44521
chimesFF: 	1 1 0 0 2 3 4.44521
chimesFF: 	1 0 1 3 0 2 4.44521
chimesFF: 	1 1 0 0 3 2 4.44521
chimesFF: 	0 2 3 1 1 0 4.44521
chimesFF: 	0 3 2 1 1 0 4.44521
chimesFF: 	2 0 3 1 0 1 4.44521
chimesFF: 	2 3 0 0 1 1 4.44521
chimesFF: 	3 0 2 1 0 1 4.44521
chimesFF: 	3 2 0 0 1 1 4.44521
chimesFF: 	1 2 0 0 1 3 4.44521
chimesFF: 	1 0 2 1 0 3 4.44521
chimesFF: 	2 1 0 0 3 1 4.44521
chimesFF: 	2 0 1 3 0 1 4.44521
chimesFF: 	0 1 2 1 3 0 4.44521
chimesFF: 	0 2 1 3 1 0 4.44521
chimesFF: 	1 3 0 0 1 2 4.44521
chimesFF: 	1 0 3 1 0 2 4.44521
chimesFF: 	3 1 0 0 2 1 4.44521
chimesFF: 	3 0 1 2 0 1 4.44521
chimesFF: 	0 1 3 1 2 0 4.44521
chimesFF: 	0 3 1 2 1 0 4.44521
chimesFF: 	0 1 1 3 3 2 1.46446
chimesFF: 	1 0 1 3 2 3 1.46446
chimesFF: 	1 1 0 2 3 3 1.46446
chimesFF: 	0 3 3 1 1 2 1.46446
chimesFF: 	3 0 3 1 2 1 1.46446
chimesFF: 	3 3 0 2 1 1 1.46446
chimesFF: 	1 3 2 0 1 3 1.46446
chimesFF: 	1 2 3 1 0 3 1.46446
chimesFF: 	3 1 2 0 3 1 1.46446
chimesFF: 	3 2 1 3 0 1 1.46446
chimesFF: 	2 1 3 1 3 0 1.46446
chimesFF: 	2 3 1 3 1 0 1.46446
chimesFF: 	0 1 2 1 2 3 -2.70363
chimesFF: 	0 2 1 2 1 3 -2.70363
chimesFF: 	1 0 2 1 3 2 -2.70363
chimesFF: 	1 2 0 3 1 2 -2.70363
chimesFF: 	2 0 1 2 3 1 -2.70363
chimesFF: 	2 1 0 3 2 1 -2.70363
chimesFF: 	1 1 3 0 2 2 -2.70363
chimesFF: 	1 3 1 2 0 2 -2.70363
chimesFF: 	3 1 1 2 2 0 -2.70363
chimesFF: 	2 2 3 0 1 1 -2.70363
chimesFF: 	2 3 2 1 0 1 -2.70363
chimesFF: 	3 2 2 1 1 0 -2.70363
chimesFF: 	0 1 2 2 3 1 0.03300
chimesFF: 	0 2 1 3 2 1 0.03300
chimesFF: 	1 0 2 2 1 3 0.03300
chimesFF: 	1 2 0 1 2 3 0.03300
chimesFF: 	2 0 1 3 1 2 0.03300
chimesFF: 	2 1 0 1 3 2 0.03300
chimesFF: 	0 2 3 1 2 1 0.03300
chimesFF: 	0 3 2 2 1 1 0.03300
chimesFF: 	2 0 3 1 1 2 0.03300
chimesFF: 	2 3 0 1 1 2 0.03300
chimesFF: 	3 0 2 2 1 1 0.03300
chimesFF: 	3 2 0 1 2 1 0.03300
chimesFF: 	1 2 1 0 2 3 0.03300
chimesFF: 	1 1 2 2 0 3 0.03300
chimesFF: 	2 1 1 0 3 2 0.03300
chimesFF: 	2 1 1 3 0 2 0.03300
chimesFF: 	1 1 2 2 3 0 0.03300
chimesFF: 	1 2 1 3 2 0 0.03300
chimesFF: 	2 3 1 0 1 2 0.03300
chimesFF: 	2 1 3 1 0 2 0.03300
chimesFF: 	3 2 1 0 2 1 0.03300
chimesFF: 	3 1 2 2 0 1 0.03300
chimesFF: 	1 2 3 1 2 0 0.03300
chimesFF: 	1 3 2 2 1 0 0.03300
chimesFF: 	0 1 2 2 3 2 -0.28465
chimesFF: 	0 2 1 3 2 2 -0.28465
chimesFF: 	1 0 2 2 2 3 -0.28465
chimesFF: 	1 2 0 2 2 3 -0.28465
chimesFF: 	2 0 1 3 2 2 -0.28465
chimesFF: 	2 1 0 2 3 2 -0.28465
chimesFF: 	0 2 3 1 2 2 -0.28465
chimesFF: 	0 3 2 2 1 2 -0.28465
chimesFF: 	2 0 3 1 2 2 -0.28465
chimesFF: 	2 3 0 2 1 2 -0.28465
chimesFF: 	3 0 2 2 2 1 -0.28465
chimesFF: 	3 2 0 2 2 1 -0.28465
chimesFF: 	1 2 2 0 2 3 -0.28465
chimesFF: 	1 2 2 2 0 3 -0.28465
chimesFF: 	2 1 2 0 3 2 -0.28465
chimesFF: 	2 2 1 3 0 2 -0.28465
chimesFF: 	2 1 2 2 3 0 -0.28465
chimesFF: 	2 2 1 3 2 0 -0.28465
chimesFF: 	2 3 2 0 1 2 -0.28465
chimesFF: 	2 2 3 1 0 2 -0.28465
chimesFF: 	3 2 2 0 2 1 -0.28465
chimesFF: 	3 2 2 2 0 1 -0.28465
chimesFF: 	2 2 3 1 2 0 -0.28465
chimesFF: 	2 3 2 2 1 0 -0.28465
chimesFF: 	0 1 2 2 3 3 -0.89597
chimesFF: 	0 2 1 3 2 3 -0.89597
chimesFF: 	1 0 2 2 3 3 -0.89597
chimesFF: 	1 2 0 3 2 3 -0.89597
chimesFF: 	2 0 1 3 3 2 -0.89597
chimesFF: 	2 1 0 3 3 2 -0.89597
chimesFF: 	0 2 3 1 2 3 -0.89597
chimesFF: 	0 3 2 2 1 3 -0.89597
chimesFF: 	2 0 3 1 3 2 -0.89597
chimesFF: 	2 3 0 3 1 2 -0.89597
chimesFF: 	3 0 2 2 3 1 -0.89597
chimesFF: 	3 2 0 3 2 1 -0.89597
chimesFF: 	1 2 3 0 2 3 -0.89597
chimesFF: 	1 3 2 2 0 3 -0.89597
chimesFF: 	2 1 3 0 3 2 -0.89597
chimesFF: 	2 3 1 3 0 2 -0.89597
chimesFF: 	3 1 2 2 3 0 -0.89597
chimesFF: 	3 2 1 3 2 0 -0.89597
chimesFF: 	2 3 3 0 1 2 -0.89597
chimesFF: 	2 3 3 1 0 2 -0.89597
chimesFF: 	3 2 3 0 2 1 -0.89597
chimesFF: 	3 3 2 2 0 1 -0.89597
chimesFF: 	3 2 3 1 2 0 -0.89597
chimesFF: 	3 3 2 2 1 0 -0.89597
chimesFF: 	0 1 2 3 1 1 1.63988
chimesFF: 	0 2 1 1 3 1 1.63988
chimesFF: 	1 0 2 3 1 1 1.63988
chimesFF: 	1 2 0 1 3 1 1.63988
chimesFF: 	2 0 1 1 1 3 1.63988
chimesFF: 	2 1 0 1 1 3 1.63988
chimesFF: 	0 3 1 1 2 1 1.63988
chimesFF: 	0 1 3 2 1 1 1.63988
chimesFF: 	3 0 1 1 1 2 1.63988
chimesFF: 	3 1 0 1 1 2 1.63988
chimesFF: 	1 0 3 2 1 1 1.63988
chimesFF: 	1 3 0 1 2 1 1.63988
chimesFF: 	1 3 1 0 2 1 1.63988
chimesFF: 	1 1 3 2 0 1 1.63988
chimesFF: 	3 1 1 0 1 2 1.63988
chimesFF: 	3 1 1 1 0 2 1.63988
chimesFF: 	1 1 3 2 1 0 1.63988
chimesFF: 	1 3 1 1 2 0 1.63988
chimesFF: 	2 1 1 0 1 3 1.63988
chimesFF: 	2 1 1 1 0 3 1.63988
chimesFF: 	1 2 1 0 3 1 1.63988
chimesFF: 	1 1 2 3 0 1 1.63988
chimesFF: 	1 2 1 1 3 0 1.63988
chimesFF: 	1 1 2 3 1 0 1.63988
chimesFF: 	0 1 2 3 1 2 0.21870
chimesFF: 	0 2 1 1 3 2 0.21870
chimesFF: 	1 0 2 3 2 1 0.21870
chimesFF: 	1 2 0 2 3 1 0.21870
chimesFF: 	2 0 1 1 2 3 0.21870
chimesFF: 	2 1 0 2 1 3 0.21870
chimesFF: 	0 3 1 1 2 2 0.21870
chimesFF: 	0 1 3 2 1 2 0.21870
chimesFF: 	3 0 1 1 2 2 0.21870
chimesFF: 	3 1 0 2 1 2 0.21870
chimesFF: 	1 0 3 2 2 1 0.21870
chimesFF: 	1 3 0 2 2 1 0.21870
chimesFF: 	1 3 2 0 2 1 0.21870
chimesFF: 	1 2 3 2 0 1 0.21870
chimesFF: 	3 1 2 0 1 2 0.21870
chimesFF: 	3 2 1 1 0 2 0.21870
chimesFF: 	2 1 3 2 1 0 0.21870
chimesFF: 	2 3 1 1 2 0 0.21870
chimesFF: 	2 1 2 0 1 3 0.21870
chimesFF: 	2 2 1 1 0 3 0.21870
chimesFF: 	1 2 2 0 3 1 0.21870
chimesFF: 	1 2 2 3 0 1 0.21870
chimesFF: 	2 2 1 1 3 0 0.21870
chimesFF: 	2 1 2 3 1 0 0.21870
chimesFF: 	0 1 2 3 2 3 0.26433
chimesFF: 	0 2 1 2 3 3 0.26433
chimesFF: 	1 0 2 3 3 2 0.26433
chimesFF: 	1 2 0 3 3 2 0.26433
chimesFF: 	2 0 1 2 3 3 0.26433
chimesFF: 	2 1 0 3 2 3 0.26433
chimesFF: 	0 3 2 1 2 3 0.26433
chimesFF: 	0 2 3 2 1 3 0.26433
chimesFF: 	3 0 2 1 3 2 0.26433
chimesFF: 	3 2 0 3 1 2 0.26433
chimesFF: 	2 0 3 2 3 1 0.26433
chimesFF: 	2 3 0 3 2 1 0.26433
chimesFF: 	1 3 3 0 2 2 0.26433
chimesFF: 	1 3 3 2 0 2 0.26433
chimesFF: 	3 1 3 0 2 2 0.26433
chimesFF: 	3 3 1 2 0 2 0.26433
chimesFF: 	3 1 3 2 2 0 0.26433
chimesFF: 	3 3 1 2 2 0 0.26433
chimesFF: 	2 2 3 0 1 3 0.26433
chimesFF: 	2 3 2 1 0 3 0.26433
chimesFF: 	2 2 3 0 3 1 0.26433
chimesFF: 	2 3 2 3 0 1 0.26433
chimesFF: 	3 2 2 1 3 0 0.26433
chimesFF: 	3 2 2 3 1 0 0.26433
chimesFF: 	0 1 2 3 3 2 -3.23500
chimesFF: 	0 2 1 3 3 2 -3.23500
chimesFF: 	1 0 2 3 2 3 -3.23500
chimesFF: 	1 2 0 2 3 3 -3.23500
chimesFF: 	2 0 1 3 2 3 -3.23500
chimesFF: 	2 1 0 2 3 3 -3.23500
chimesFF: 	0 3 3 1 2 2 -3.23500
chimesFF: 	0 3 3 2 1 2 -3.23500
chimesFF: 	3 0 3 1 2 2 -3.23500
chimesFF: 	3 3 0 2 1 2 -3.23500
chimesFF: 	3 0 3 2 2 1 -3.23500
chimesFF: 	3 3 0 2 2 1 -3.23500
chimesFF: 	1 3 2 0 2 3 -3.23500
chimesFF: 	1 2 3 2 0 3 -3.23500
chimesFF: 	3 1 2 0 3 2 -3.23500
chimesFF: 	3 2 1 3 0 2 -3.23500
chimesFF: 	2 1 3 2 3 0 -3.23500
chimesFF: 	2 3 1 3 2 0 -3.23500
chimesFF: 	2 3 2 0 1 3 -3.23500
chimesFF: 	2 2 3 1 0 3 -3.23500
chimesFF: 	3 2 2 0 3 1 -3.23500
chimesFF: 	3 2 2 3 0 1 -3.23500
chimesFF: 	2 2 3 1 3 0 -3.23500
chimesFF: 	2 3 2 3 1 0 -3.23500
chimesFF: 	0 1 3 1 3 3 1.35544
chimesFF: 	0 3 1 3 1 3 1.35544
chimesFF: 	1 0 3 1 3 3 1.35544
chimesFF: 	1 3 0 3 1 3 1.35544
chimesFF: 	3 0 1 3 3 1 1.35544
chimesFF: 	3 1 0 3 3 1 1.35544
chimesFF: 	1 1 3 0 3 3 1.35544
chimesFF: 	1 3 1 3 0 3 1.35544
chimesFF: 	3 1 1 3 3 0 1.35544
chimesFF: 	3 3 3 0 1 1 1.35544
chimesFF: 	3 3 3 1 0 1 1.35544
chimesFF: 	3 3 3 1 1 0 1.35544
chimesFF: 	0 1 3 2 2 2 1.02449
chimesFF: 	0 3 1 2 2 2 1.02449
chimesFF: 	1 0 3 2 2 2 1.02449
chimesFF: 	1 3 0 2 2 2 1.02449
chimesFF: 	3 0 1 2 2 2 1.02449
chimesFF: 	3 1 0 2 2 2 1.02449
chimesFF: 	0 2 2 1 3 2 1.02449
chimesFF: 	0 2 2 3 1 2 1.02449
chimesFF: 	2 0 2 1 2 3 1.02449
chimesFF: 	2 2 0 2 1 3 1.02449
chimesFF: 	2 0 2 3 2 1 1.02449
chimesFF: 	2 2 0 2 3 1 1.02449
chimesFF: 	1 2 2 0 3 2 1.02449
chimesFF: 	1 2 2 3 0 2 1.02449
chimesFF: 	2 1 2 0 2 3 1.02449
chimesFF: 	2 2 1 2 0 3 1.02449
chimesFF: 	2 1 2 3 2 0 1.02449
chimesFF: 	2 2 1 2 3 0 1.02449
chimesFF: 	3 2 2 0 1 2 1.02449
chimesFF: 	3 2 2 1 0 2 1.02449
chimesFF: 	2 3 2 0 2 1 1.02449
chimesFF: 	2 2 3 2 0 1 1.02449
chimesFF: 	2 3 2 1 2 0 1.02449
chimesFF: 	2 2 3 2 1 0 1.02449
chimesFF: 	0 1 3 2 3 3 -0.97195
chimesFF: 	0 3 1 3 2 3 -0.97195
chimesFF: 	1 0 3 2 3 3 -0.97195
chimesFF: 	1 3 0 3 2 3 -0.97195
chimesFF: 	3 0 1 3 3 2 -0.97195
chimesFF: 	3 1 0 3 3 2 -0.97195
chimesFF: 	0 2 3 1 3 3 -0.97195
chimesFF: 	0 3 2 3 1 3 -0.97195
chimesFF: 	2 0 3 1 3 3 -0.97195
chimesFF: 	2 3 0 3 1 3 -0.97195
chimesFF: 	3 0 2 3 3 1 -0.97195
chimesFF: 	3 2 0 3 3 1 -0.97195
chimesFF: 	1 2 3 0 3 3 -0.97195
chimesFF: 	1 3 2 3 0 3 -0.97195
chimesFF: 	2 1 3 0 3 3 -0.97195
chimesFF: 	2 3 1 3 0 3 -0.97195
chimesFF: 	3 1 2 3 3 0 -0.97195
chimesFF: 	3 2 1 3 3 0 -0.97195
chimesFF: 	3 3 3 0 1 2 -0.97195
chimesFF: 	3 3 3 1 0 2 -0.97195
chimesFF: 	3 3 3 0 2 1 -0.97195
chimesFF: 	3 3 3 2 0 1 -0.97195
chimesFF: 	3 3 3 1 2 0 -0.97195
chimesFF: 	3 3 3 2 1 0 -0.97195
chimesFF: 	0 1 3 3 1 3 6.81758
chimesFF: 	0 3 1 1 3 3 6.81758
chimesFF: 	1 0 3 3 3 1 6.81758
chimesFF: 	1 3 0 3 3 1 6.81758
chimesFF: 	3 0 1 1 3 3 6.81758
chimesFF: 	3 1 0 3 1 3 6.81758
chimesFF: 	1 3 3 0 3 1 6.81758
chimesFF: 	1 3 3 3 0 1 6.81758
chimesFF: 	3 1 3 0 1 3 6.81758
chimesFF: 	3 3 1 1 0 3 6.81758
chimesFF: 	3 1 3 3 1 0 6.81758
chimesFF: 	3 3 1 1 3 0 6.81758
chimesFF: 	0 1 3 3 2 2 1.31330
chimesFF: 	0 3 1 2 3 2 1.31330
chimesFF: 	1 0 3 3 2 2 1.31330
chimesFF: 	1 3 0 2 3 2 1.31330
chimesFF: 	3 0 1 2 2 3 1.31330
chimesFF: 	3 1 0 2 2 3 1.31330
chimesFF: 	0 3 2 1 3 2 1.31330
chimesFF: 	0 2 3 3 1 2 1.31330
chimesFF: 	3 0 2 1 2 3 1.31330
chimesFF: 	3 2 0 2 1 3 1.31330
chimesFF: 	2 0 3 3 2 1 1.31330
chimesFF: 	2 3 0 2 3 1 1.31330
chimesFF: 	1 3 2 0 3 2 1.31330
chimesFF: 	1 2 3 3 0 2 1.31330
chimesFF: 	3 1 2 0 2 3 1.31330
chimesFF: 	3 2 1 2 0 3 1.31330
chimesFF: 	2 1 3 3 2 0 1.31330
chimesFF: 	2 3 1 2 3 0 1.31330
chimesFF: 	3 2 2 0 1 3 1.31330
chimesFF: 	3 2 2 1 0 3 1.31330
chimesFF: 	2 3 2 0 3 1 1.31330
chimesFF: 	2 2 3 3 0 1 1.31330
chimesFF: 	2 3 2 1 3 0 1.31330
chimesFF: 	2 2 3 3 1 0 1.31330
chimesFF: 	0 1 3 3 3 1 -4.82942
chimesFF: 	0 3 1 3 3 1 -4.82942
chimesFF: 	1 0 3 3 1 3 -4.82942
chimesFF: 	1 3 0 1 3 3 -4.82942
chimesFF: 	3 0 1 3 1 3 -4.82942
chimesFF: 	3 1 0 1 3 3 -4.82942
chimesFF: 	0 3 3 1 3 1 -4.82942
chimesFF: 	0 3 3 3 1 1 -4.82942
chimesFF: 	3 0 3 1 1 3 -4.82942
chimesFF: 	3 3 0 1 1 3 -4.82942
chimesFF: 	3 0 3 3 1 1 -4.82942
chimesFF: 	3 3 0 1 3 1 -4.82942
chimesFF: 	1 3 1 0 3 3 -4.82942
chimesFF: 	1 1 3 3 0 3 -4.82942
chimesFF: 	3 1 1 0 3 3 -4.82942
chimesFF: 	3 1 1 3 0 3 -4.82942
chimesFF: 	1 1 3 3 3 0 -4.82942
chimesFF: 	1 3 1 3 3 0 -4.82942
chimesFF: 	3 3 1 0 1 3 -4.82942
chimesFF: 	3 1 3 1 0 3 -4.82942
chimesFF: 	3 3 1 0 3 1 -4.82942
chimesFF: 	3 1 3 3 0 1 -4.82942
chimesFF: 	1 3 3 1 3 0 -4.82942
chimesFF: 	1 3 3 3 1 0 -4.82942
chimesFF: 	0 2 2 2 3 2 0.55211
chimesFF: 	0 2 2 3 2 2 0.55211
chimesFF: 	2 0 2 2 2 3 0.55211
chimesFF: 	2 2 0 2 2 3 0.55211
chimesFF: 	2 0 2 3 2 2 0.55211
chimesFF: 	2 2 0 2 3 2 0.55211
chimesFF: 	0 2 3 2 2 2 0.55211
chimesFF: 	0 3 2 2 2 2 0.55211
chimesFF: 	2 0 3 2 2 2 0.55211
chimesFF: 	2 3 0 2 2 2 0.55211
chimesFF: 	3 0 2 2 2 2 0.55211
chimesFF: 	3 2 0 2 2 2 0.55211
chimesFF: 	2 2 2 0 2 3 0.55211
chimesFF: 	2 2 2 2 0 3 0.55211
chimesFF: 	2 2 2 0 3 2 0.55211
chimesFF: 	2 2 2 3 0 2 0.55211
chimesFF: 	2 2 2 2 3 0 0.55211
chimesFF: 	2 2 2 3 2 0 0.55211
chimesFF: 	2 3 2 0 2 2 0.55211
chimesFF: 	2 2 3 2 0 2 0.55211
chimesFF: 	3 2 2 0 2 2 0.55211
chimesFF: 	3 2 2 2 0 2 0.55211
chimesFF: 	2 2 3 2 2 0 0.55211
chimesFF: 	2 3 2 2 2 0 0.55211
chimesFF: 	0 2 2 3 3 1 0.42676
chimesFF: 	2 0 2 3 1 3 0.42676
chimesFF: 	2 2 0 1 3 3 0.42676
chimesFF: 	0 3 3 2 2 1 0.42676
chimesFF: 	3 0 3 2 1 2 0.42676
chimesFF: 	3 3 0 1 2 2 0.42676
chimesFF: 	2 3 1 0 2 3 0.42676
chimesFF: 	2 1 3 2 0 3 0.42676
chimesFF: 	3 2 1 0 3 2 0.42676
chimesFF: 	3 1 2 3 0 2 0.42676
chimesFF: 	1 2 3 2 3 0 0.42676
chimesFF: 	1 3 2 3 2 0 0.42676
chimesFF: 	0 2 2 3 3 2 -1.10729
chimesFF: 	2 0 2 3 2 3 -1.10729
chimesFF: 	2 2 0 2 3 3 -1.10729
chimesFF: 	0 3 3 2 2 2 -1.10729
chimesFF: 	3 0 3 2 2 2 -1.10729
chimesFF: 	3 3 0 2 2 2 -1.10729
chimesFF: 	2 3 2 0 2 3 -1.10729
chimesFF: 	2 2 3 2 0 3 -1.10729
chimesFF: 	3 2 2 0 3 2 -1.10729
chimesFF: 	3 2 2 3 0 2 -1.10729
chimesFF: 	2 2 3 2 3 0 -1.10729
chimesFF: 	2 3 2 3 2 0 -1.10729
chimesFF: 	0 2 2 3 3 3 -1.14815
chimesFF: 	2 0 2 3 3 3 -1.14815
chimesFF: 	2 2 0 3 3 3 -1.14815
chimesFF: 	0 3 3 2 2 3 -1.14815
chimesFF: 	3 0 3 2 3 2 -1.14815
chimesFF: 	3 3 0 3 2 2 -1.14815
chimesFF: 	2 3 3 0 2 3 -1.14815
chimesFF: 	2 3 3 2 0 3 -1.14815
chimesFF: 	3 2 3 0 3 2 -1.14815
chimesFF: 	3 3 2 3 0 2 -1.14815
chimesFF: 	3 2 3 2 3 0 -1.14815
chimesFF: 	3 3 2 3 2 0 -1.14815
chimesFF: 	0 2 3 3 2 2 2.35215
chimesFF: 	0 3 2 2 3 2 2.35215
chimesFF: 	2 0 3 3 2 2 2.35215
chimesFF: 	2 3 0 2 3 2 2.35215
chimesFF: 	3 0 2 2 2 3 2.35215
chimesFF: 	3 2 0 2 2 3 2.35215
chimesFF: 	2 3 2 0 3 2 2.35215
chimesFF: 	2 2 3 3 0 2 2.35215
chimesFF: 	3 2 2 0 2 3 2.35215
chimesFF: 	3 2 2 2 0 3 2.35215
chimesFF: 	2 2 3 3 2 0 2.35215
chimesFF: 	2 3 2 2 3 0 2.35215
chimesFF: 	0 2 3 3 3 2 0.62789
chimesFF: 	0 3 2 3 3 2 0.62789
chimesFF: 	2 0 3 3 2 3 0.62789
chimesFF: 	2 3 0 2 3 3 0.62789
chimesFF: 	3 0 2 3 2 3 0.62789
chimesFF: 	3 2 0 2 3 3 0.62789
chimesFF: 	0 3 3 2 3 2 0.62789
chimesFF: 	0 3 3 3 2 2 0.62789
chimesFF: 	3 0 3 2 2 3 0.62789
chimesFF: 	3 3 0 2 2 3 0.62789
chimesFF: 	3 0 3 3 2 2 0.62789
chimesFF: 	3 3 0 2 3 2 0.62789
chimesFF: 	2 3 2 0 3 3 0.62789
chimesFF: 	2 2 3 3 0 3 0.62789
chimesFF: 	3 2 2 0 3 3 0.62789
chimesFF: 	3 2 2 3 0 3 0.62789
chimesFF: 	2 2 3 3 3 0 0.62789
chimesFF: 	2 3 2 3 3 0 0.62789
chimesFF: 	3 3 2 0 2 3 0.62789
chimesFF: 	3 2 3 2 0 3 0.62789
chimesFF: 	3 3 2 0 3 2 0.62789
chimesFF: 	3 2 3 3 0 2 0.62789
chimesFF: 	2 3 3 2 3 0 0.62789
chimesFF: 	2 3 3 3 2 0 0.62789
chimesFF: 	0 2 3 3 3 3 -1.19533
chimesFF: 	0 3 2 3 3 3 -1.19533
chimesFF: 	2 0 3 3 3 3 -1.19533
chimesFF: 	2 3 0 3 3 3 -1.19533
chimesFF: 	3 0 2 3 3 3 -1.19533
chimesFF: 	3 2 0 3 3 3 -1.19533
chimesFF: 	0 3 3 2 3 3 -1.19533
chimesFF: 	0 3 3 3 2 3 -1.19533
chimesFF: 	3 0 3 2 3 3 -1.19533
chimesFF: 	3 3 0 3 2 3 -1.19533
chimesFF: 	3 0 3 3 3 2 -1.19533
chimesFF: 	3 3 0 3 3 2 -1.19533
chimesFF: 	2 3 3 0 3 3 -1.19533
chimesFF: 	2 3 3 3 0 3 -1.19533
chimesFF: 	3 2 3 0 3 3 -1.19533
chimesFF: 	3 3 2 3 0 3 -1.19533
chimesFF: 	3 2 3 3 3 0 -1.19533
chimesFF: 	3 3 2 3 3 0 -1.19533
chimesFF: 	3 3 3 0 2 3 -1.19533
chimesFF: 	3 3 3 2 0 3 -1.19533
chimesFF: 	3 3 3 0 3 2 -1.19533
chimesFF: 	3 3 3 3 0 2 -1.19533
chimesFF: 	3 3 3 2 3 0 -1.19533
chimesFF: 	3 3 3 3 2 0 -1.19533
chimesFF: 	0 3 3 3 3 2 -1.17000
chimesFF: 	3 0 3 3 2 3 -1.17000
chimesFF: 	3 3 0 2 3 3 -1.17000
chimesFF: 	3 3 2 0 3 3 -1.17000
chimesFF: 	3 2 3 3 0 3 -1.17000
chimesFF: 	2 3 3 3 3 0 -1.17000
chimesFF: 	1 1 3 3 2 3 -4.60439
chimesFF: 	1 3 1 2 3 3 -4.60439
chimesFF: 	1 1 3 3 3 2 -4.60439
chimesFF: 	1 3 1 3 3 2 -4.60439
chimesFF: 	3 1 1 2 3 3 -4.60439
chimesFF: 	3 1 1 3 2 3 -4.60439
chimesFF: 	1 3 2 1 3 3 -4.60439
chimesFF: 	1 2 3 3 1 3 -4.60439
chimesFF: 	3 1 2 1 3 3 -4.60439
chimesFF: 	3 2 1 3 1 3 -4.60439
chimesFF: 	2 1 3 3 3 1 -4.60439
chimesFF: 	2 3 1 3 3 1 -4.60439
chimesFF: 	1 3 3 1 3 2 -4.60439
chimesFF: 	1 3 3 3 1 2 -4.60439
chimesFF: 	3 1 3 1 2 3 -4.60439
chimesFF: 	3 3 1 2 1 3 -4.60439
chimesFF: 	3 1 3 3 2 1 -4.60439
chimesFF: 	3 3 1 2 3 1 -4.60439
chimesFF: 	3 2 3 1 1 3 -4.60439
chimesFF: 	3 3 2 1 1 3 -4.60439
chimesFF: 	2 3 3 1 3 1 -4.60439
chimesFF: 	2 3 3 3 1 1 -4.60439
chimesFF: 	3 3 2 1 3 1 -4.60439
chimesFF: 	3 2 3 3 1 1 -4.60439
chimesFF: 	1 1 3 3 3 3 1.41200
chimesFF: 	1 3 1 3 3 3 1.41200
chimesFF: 	3 1 1 3 3 3 1.41200
chimesFF: 	1 3 3 1 3 3 1.41200
chimesFF: 	1 3 3 3 1 3 1.41200
chimesFF: 	3 1 3 1 3 3 1.41200
chimesFF: 	3 3 1 3 1 3 1.41200
chimesFF: 	3 1 3 3 3 1 1.41200
chimesFF: 	3 3 1 3 3 1 1.41200
chimesFF: 	3 3 3 1 1 3 1.41200
chimesFF: 	3 3 3 1 3 1 1.41200
chimesFF: 	3 3 3 3 1 1 1.41200
chimesFF: 	1 2 3 2 3 2 -6.44012
chimesFF: 	1 3 2 3 2 2 -6.44012
chimesFF: 	2 1 3 2 2 3 -6.44012
chimesFF: 	2 3 1 2 2 3 -6.44012
chimesFF: 	3 1 2 3 2 2 -6.44012
chimesFF: 	3 2 1 2 3 2 -6.44012
chimesFF: 	2 2 2 1 3 3 -6.44012
chimesFF: 	2 2 2 3 1 3 -6.44012
chimesFF: 	2 2 2 3 3 1 -6.44012
chimesFF: 	3 3 2 1 2 2 -6.44012
chimesFF: 	3 2 3 2 1 2 -6.44012
chimesFF: 	2 3 3 2 2 1 -6.44012
chimesFF: 	1 2 3 3 3 3 -3.32704
chimesFF: 	1 3 2 3 3 3 -3.32704
chimesFF: 	2 1 3 3 3 3 -3.32704
chimesFF: 	2 3 1 3 3 3 -3.32704
chimesFF: 	3 1 2 3 3 3 -3.32704
chimesFF: 	3 2 1 3 3 3 -3.32704
chimesFF: 	1 3 3 2 3 3 -3.32704
chimesFF: 	1 3 3 3 2 3 -3.32704
chimesFF: 	3 1 3 2 3 3 -3.32704
chimesFF: 	3 3 1 3 2 3 -3.32704
chimesFF: 	3 1 3 3 3 2 -3.32704
chimesFF: 	3 3 1 3 3 2 -3.32704
chimesFF: 	2 3 3 1 3 3 -3.32704
chimesFF: 	2 3 3 3 1 3 -3.32704
chimesFF: 	3 2 3 1 3 3 -3.32704
chimesFF: 	3 3 2 3 1 3 -3.32704
chimesFF: 	3 2 3 3 3 1 -3.32704
chimesFF: 	3 3 2 3 3 1 -3.32704
chimesFF: 	3 3 3 1 2 3 -3.32704
chimesFF: 	3 3 3 2 1 3 -3.32704
chimesFF: 	3 3 3 1 3 2 -3.32704
chimesFF: 	3 3 3 3 1 2 -3.32704
chimesFF: 	3 3 3 2 3 1 -3.32704
chimesFF: 	3 3 3 3 2 1 -3.32704
chimesFF: 	1 3 3 3 3 2 0.93416
chimesFF: 	3 1 3 3 2 3 0.93416
chimesFF: 	3 3 1 2 3 3 0.93416
chimesFF: 	3 3 2 1 3 3 0.93416
chimesFF: 	3 2 3 3 1 3 0.93416
chimesFF: 	2 3 3 3 3 1 0.93416
chimesFF: 	1 3 3 3 3 3 0.70023
chimesFF: 	3 1 3 3 3 3 0.70023
chimesFF: 	3 3 1 3 3 3 0.70023
chimesFF: 	3 3 3 1 3 3 0.70023
chimesFF: 	3 3 3 3 1 3 0.70023
chimesFF: 	3 3 3 3 3 1 0.70023
chimesFF: 	2 2 3 3 3 3 0.47855
chimesFF: 	2 3 2 3 3 3 0.47855
chimesFF: 	3 2 2 3 3 3 0.47855
chimesFF: 	2 3 3 2 3 3 0.47855
chimesFF: 	2 3 3 3 2 3 0.47855
chimesFF: 	3 2 3 2 3 3 0.47855
chimesFF: 	3 3 2 3 2 3 0.47855
chimesFF: 	3 2 3 3 3 2 0.47855
chimesFF: 	3 3 2 3 3 2 0.47855
chimesFF: 	3 3 3 2 2 3 0.47855
chimesFF: 	3 3 3 2 3 2 0.47855
chimesFF: 	3 3 3 3 2 2 0.47855
chimesFF: Read 4B parameters for quadruplets: 1 H N N N
chimesFF: 	0 0 1 0 1 1 -5.78504
chimesFF: 	0 1 0 1 0 1 -5.78504
chimesFF: 	1 0 0 1 1 0 -5.78504
chimesFF: 	0 0 1 0 1 2 1.45448
chimesFF: 	0 1 0 1 0 2 1.45448
chimesFF: 	0 0 1 0 2 1 1.45448
chimesFF: 	0 1 0 2 0 1 1.45448
chimesFF: 	1 0 0 1 2 0 1.45448
chimesFF: 	1 0 0 2 1 0 1.45448
chimesFF: 	0 0 1 0 1 3 0.73254
chimesFF: 	0 1 0 1 0 3 0.73254
chimesFF: 	0 0 1 0 3 1 0.73254
chimesFF: 	0 1 0 3 0 1 0.73254
chimesFF: 	1 0 0 1 3 0 0.73254
chimesFF: 	1 0 0 3 1 0 0.73254
chimesFF: 	0 0 1 1 0 0 -5.82802
chimesFF: 	0 1 0 0 1 0 -5.82802
chimesFF: 	1 0 0 0 0 1 -5.82802
chimesFF: 	0 0 1 1 0 3 -0.05226
chimesFF: 	0 1 0 0 1 3 -0.05226
chimesFF: 	0 0 1 1 3 0 -0.05226
chimesFF: 	0 1 0 3 1 0 -0.05226
chimesFF: 	1 0 0 0 3 1 -0.05226
chimesFF: 	1 0 0 3 0 1 -0.05226
chimesFF: 	0 0 1 2 0 3 1.09642
chimesFF: 	0 1 0 0 2 3 1.09642
chimesFF: 	0 0 1 2 3 0 1.09642
chimesFF: 	0 1 0 3 2 0 1.09642
chimesFF: 	1 0 0 0 3 2 1.09642
chimesFF: 	1 0 0 3 0 2 1.09642
chimesFF: 	0 0 1 2 1 2 0.75746
chimesFF: 	0 1 0 1 2 2 0.75746
chimesFF: 	0 0 1 2 2 1 0.75746
chimesFF: 	0 1 0 2 2 1 0.75746
chimesFF: 	1 0 0 1 2 2 0.75746
chimesFF: 	1 0 0 2 1 2 0.75746
chimesFF: 	0 0 1 2 2 3 -0.26850
chimesFF: 	0 1 0 2 2 3 -0.26850
chimesFF: 	0 0 1 2 3 2 -0.26850
chimesFF: 	0 1 0 3 2 2 -0.26850
chimesFF: 	1 0 0 2 3 2 -0.26850
chimesFF: 	1 0 0 3 2 2 -0.26850
chimesFF: 	0 0 1 3 0 1 2.79986
chimesFF: 	0 1 0 0 3 1 2.79986
chimesFF: 	0 0 1 3 1 0 2.79986
chimesFF: 	0 1 0 1 3 0 2.79986
chimesFF: 	1 0 0 0 1 3 2.79986
chimesFF: 	1 0 0 1 0 3 2.79986
chimesFF: 	0 0 1 3 0 2 0.03911
chimesFF: 	0 1 0 0 3 2 0.03911
chimesFF: 	0 0 1 3 2 0 0.03911
chimesFF: 	0 1 0 2 3 0 0.03911
chimesFF: 	1 0 0 0 2 3 0.03911
chimesFF: 	1 0 0 2 0 3 0.03911
chimesFF: 	0 0 1 3 0 3 -0.22526
chimesFF: 	0 1 0 0 3 3 -0.22526
chimesFF: 	0 0 1 3 3 0 -0.22526
chimesFF: 	0 1 0 3 3 0 -0.22526
chimesFF: 	1 0 0 0 3 3 -0.22526
chimesFF: 	1 0 0 3 0 3 -0.22526
chimesFF: 	0 0 1 3 1 3 -0.28713
chimesFF: 	0 1 0 1 3 3 -0.28713
chimesFF: 	0 0 1 3 3 1 -0.28713
chimesFF: 	0 1 0 3 3 1 -0.28713
chimesFF: 	1 0 0 1 3 3 -0.28713
chimesFF: 	1 0 0 3 1 3 -0.28713
chimesFF: 	0 0 1 3 3 3 0.35833
chimesFF: 	0 1 0 3 3 3 0.35833
chimesFF: 	1 0 0 3 3 3 0.35833
chimesFF: 	0 0 2 0 1 2 -1.78291
chimesFF: 	0 2 0 1 0 2 -1.78291
chimesFF: 	0 0 2 0 2 1 -1.78291
chimesFF: 	0 2 0 2 0 1 -1.78291
chimesFF: 	2 0 0 1 2 0 -1.78291
chimesFF: 	2 0 0 2 1 0 -1.78291
chimesFF: 	0 0 2 0 1 3 1.18724
chimesFF: 	0 2 0 1 0 3 1.18724
chimesFF: 	0 0 2 0 3 1 1.18724
chimesFF: 	0 2 0 3 0 1 1.18724
chimesFF: 	2 0 0 1 3 0 1.18724
[...]
chimesFF: 	3 2
chimesFF: 	4 1
chimesFF: 	5 2
chimesFF: 	6 2
chimesFF: 	7 3
chimesFF: 	8 1
chimesFF: 	9 2
chimesFF: 	10 2
chimesFF: 	11 3
chimesFF: 	12 2
chimesFF: 	13 3
chimesFF: 	14 3
chimesFF: 	15 4
chimesFF: Set the following special 4-body outer cutoffs: 
chimesFF: 	0 4.00000 4.00000 4.00000 4.00000 4.00000 4.00000
chimesFF: 	1 4.00000 4.00000 4.00000 4.00000 4.00000 4.00000
chimesFF: 	2 4.00000 4.00000 4.00000 4.00000 4.00000 4.00000
chimesFF: 	3 4.00000 4.00000 4.00000 4.00000 4.00000 4.00000
chimesFF: 	4 4.00000 4.00000 4.00000 4.00000 4.00000 4.00000
chimesFF: 	Setting 3-body max cutoff to: 5.00000
chimesFF: 	Setting 4-body max cutoff to: 4.00000

CITE-CITE-CITE-CITE-CITE-CITE-CITE-CITE-CITE-CITE-CITE-CITE-CITE

Your simulation uses code contributions which should be cited:
- Type Label Framework: https://doi.org/10.1021/acs.jpcb.3c08419
The log file lists these citations in BibTeX format.

CITE-CITE-CITE-CITE-CITE-CITE-CITE-CITE-CITE-CITE-CITE-CITE-CITE

Generated 0 of 1 mixed pair_coeff terms from geometric mixing rule
Neighbor list info ...
  update: every = 1 steps, delay = 0 steps, check = yes
  max neighbors/atom: 2000, page size: 100000
  master list distance cutoff = 9
  ghost atom cutoff = 9
  binsize = 4.5, bins = 4 4 4
  1 neighbor lists, perpetual/occasional/extra = 1 0 0
  (1) pair chimesFF, perpetual
      attributes: full, newton on, ghost
      pair build: full/bin/ghost
      stencil: full/ghost/bin/3d
      bin: standard
Setting up Verlet run ...
  Unit style    : real
  Current step  : 0
  Time step     : 0.2
Updating chimesFF neighbor lists...
	Rank 0 3-body list size: 25678
	Rank 0 4-body list size: 41427
	...update complete
Per MPI rank memory allocation (min/avg/max) = 3.765 | 3.97 | 4.153 Mbytes
   Step          Time          KinEng         PotEng          Temp          Press          TotEng       Econserve   
         0               0.00000           4569.58181         -76770.45621           3000.00000         264247.70270         -72200.87440         -72200.87440
         1               0.20000           4555.30932         -76755.99132           2990.62989         263669.42663         -72200.68200         -72200.68236
         2               0.40000           4545.51848         -76746.02812           2984.20206         262926.31509         -72200.50964         -72200.51308
         3               0.60000           4542.61493         -76743.04483           2982.29584         261947.16115         -72200.42989         -72200.44103
         4               0.80000           4547.54644         -76748.01462           2985.53345         260728.93154         -72200.46818         -72200.49219
         5               1.00000           4559.43672         -76760.02240           2993.33960         259318.21531         -72200.58568         -72200.62682
         6               1.20000           4576.10586         -76776.82486           3004.28314         257798.57408         -72200.71900         -72200.77922
         7               1.40000           4594.93747         -76795.77034           3016.64638         256257.18298         -72200.83288         -72200.91092
         8               1.60000           4613.52653         -76814.44191           3028.85038         254772.38900         -72200.91538         -72201.00621
         9               1.80000           4629.97781         -76830.94982           3039.65090         253405.36196         -72200.97201         -72201.06685
        10               2.00000           4642.91968         -76843.93395           3048.14743         252191.17069         -72201.01428         -72201.10097
        11               2.20000           4651.42512         -76852.47688           3053.73138         251146.54411         -72201.05176         -72201.11547
        12               2.40000           4654.94601         -76856.03433           3056.04290         250299.94549         -72201.08831         -72201.11244
        13               2.60000           4653.26659         -76854.39118           3054.94033         249664.62673         -72201.12458         -72201.09180
Updating chimesFF neighbor lists...
	Rank 0 3-body list size: 25816
	Rank 0 4-body list size: 41040
	...update complete
        14               2.80000           4646.47539         -76847.63815           3050.48181         249238.91004         -72201.16276         -72201.05613
        15               3.00000           4634.94190         -76836.14362           3042.90989         249023.84421         -72201.20172         -72201.00579
        16               3.20000           4619.29755         -76820.53677           3032.63914         249028.18986         -72201.23922         -72200.94096
        17               3.40000           4600.40085         -76801.68039           3020.23317         249240.78330         -72201.27954         -72200.86922
        18               3.60000           4579.27722         -76780.60117           3006.36519         249631.66470         -72201.32395         -72200.79572
        19               3.80000           4557.02467         -76758.39540           2991.75605         250179.50164         -72201.37073         -72200.72302
        20               4.00000           4534.69635         -76736.12694           2977.09717         250864.05597         -72201.43058         -72200.66624
        21               4.20000           4513.20529         -76714.70119           2962.98796         251652.10464         -72201.49590         -72200.62214
        22               4.40000           4493.25617         -76694.82461           2949.89106         252511.50109         -72201.56844         -72200.59662
        23               4.60000           4475.31390         -76676.95150           2938.11169         253432.99410         -72201.63760         -72200.58286
        24               4.80000           4459.64609         -76661.34542           2927.82553         254388.44134         -72201.69933         -72200.58018
        25               5.00000           4446.38922         -76648.13190           2919.12219         255368.95158         -72201.74269         -72200.58058
        26               5.20000           4435.60693         -76637.37171           2912.04346         256353.01211         -72201.76477         -72200.58364
        27               5.40000           4427.32986         -76629.09178           2906.60943         257326.55501         -72201.76192         -72200.58769
Updating chimesFF neighbor lists...
	Rank 0 3-body list size: 24509
	Rank 0 4-body list size: 35863
	...update complete
        28               5.60000           4421.56809         -76623.30199           2902.82675         258282.68868         -72201.73390         -72200.59412
        29               5.80000           4418.29767         -76619.97596           2900.67966         259194.80192         -72201.67829         -72200.60164
        30               6.00000           4417.46104         -76619.05430           2900.13040         260054.83635         -72201.59326         -72200.60914
        31               6.20000           4418.97138         -76620.45259           2901.12196         260842.07540         -72201.48121         -72200.61932
        32               6.40000           4422.67644         -76624.02076           2903.55439         261544.05165         -72201.34431         -72200.63425
        33               6.60000           4428.34342         -76629.52369           2907.27485         262153.97714         -72201.18027         -72200.65116
        34               6.80000           4435.68506         -76636.67258           2912.09475         262670.95805         -72200.98752         -72200.66765
        35               7.00000           4444.40911         -76645.17222           2917.82222         263100.44241         -72200.76310         -72200.67963
        36               7.20000           4454.25015         -76654.76345           2924.28301         263460.31671         -72200.51330         -72200.69197
        37               7.40000           4464.93309         -76665.17614           2931.29653         263759.61734         -72200.24304         -72200.70800
        38               7.60000           4476.11575         -76676.07732           2938.63811         264006.67809         -72199.96156         -72200.73511
        39               7.80000           4487.33257         -76687.00139           2946.00213         264199.58750         -72199.66882         -72200.77132
        40               8.00000           4497.98317         -76697.34900           2952.99440         264354.91377         -72199.36584         -72200.81568
        41               8.20000           4507.40762         -76706.44946           2959.18170         264469.36645         -72199.04184         -72200.85543
        42               8.40000           4515.01719         -76713.70874           2964.17750         264553.29613         -72198.69155         -72200.88350
Updating chimesFF neighbor lists...
	Rank 0 3-body list size: 24698
	Rank 0 4-body list size: 36363
	...update complete
        43               8.60000           4520.45129         -76718.75643           2967.74507         264607.63922         -72198.30514         -72200.88854
        44               8.80000           4523.69918         -76721.58069           2969.87736         264634.75575         -72197.88152         -72200.86833
        45               9.00000           4525.14036         -76722.56354           2970.82351         264623.92671         -72197.42318         -72200.82465
        46               9.20000           4525.47554         -76722.42567           2971.04356         264566.67236         -72196.95013         -72200.77717
        47               9.40000           4525.54333         -76722.01128           2971.08807         264437.95184         -72196.46796         -72200.73144
        48               9.60000           4526.13232         -76722.12037           2971.47475         264209.40995         -72195.98805         -72200.69893
        49               9.80000           4527.81071         -76723.33279           2972.57664         263898.66711         -72195.52207         -72200.69137
        50              10.00000           4530.77978         -76725.85532           2974.52588         263485.41115         -72195.07554         -72200.71417
        51              10.20000           4534.80038         -76729.43834           2977.16546         262972.62949         -72194.63796         -72200.75650
        52              10.40000           4539.29641         -76733.49013           2980.11718         262390.48705         -72194.19372         -72200.80217
        53              10.60000           4543.58486         -76737.31723           2982.93261         261760.96041         -72193.73237         -72200.84003
        54              10.80000           4547.08689         -76740.32972           2985.23174         261097.51227         -72193.24283         -72200.85818
        55              11.00000           4549.46744         -76742.19757           2986.79461         260411.25798         -72192.73013         -72200.86101
        56              11.20000           4550.62999         -76742.82924           2987.55784         259717.84455         -72192.19925         -72200.85300
Updating chimesFF neighbor lists...
	Rank 0 3-body list size: 24381
	Rank 0 4-body list size: 37651
	...update complete
        57              11.40000           4550.64446         -76742.30193           2987.56734         259016.35973         -72191.65747         -72200.84117
        58              11.60000           4549.67775         -76740.78272           2986.93269         258301.84726         -72191.10497         -72200.82568
        59              11.80000           4547.93986         -76738.48614           2985.79174         257587.09849         -72190.54628         -72200.81126
        60              12.00000           4545.66386         -76735.64308           2984.29750         256866.08567         -72189.97922         -72200.79610
        61              12.20000           4543.08398         -76732.48955           2982.60377         256150.31627         -72189.40556         -72200.78248
        62              12.40000           4540.41265         -76729.23720           2980.85000         255436.46957         -72188.82455         -72200.77025
        63              12.60000           4537.85137         -76726.08219           2979.16849         254727.12778         -72188.23082         -72200.75470
        64              12.80000           4535.63258         -76723.25118           2977.71181         254022.40846         -72187.61861         -72200.73075
        65              13.00000           4534.05824         -76721.04787           2976.67824         253329.26112         -72186.98963         -72200.70072
        66              13.20000           4533.44656         -76719.80559           2976.27666         252658.30993         -72186.35903         -72200.68035
        67              13.40000           4533.95870         -76719.69919           2976.61289         252022.93596         -72185.74050         -72200.68374
        68              13.60000           4535.38405         -76720.52854           2977.54866         251438.40345         -72185.14448         -72200.72155
        69              13.80000           4537.01967         -76721.58605           2978.62246         250938.79081         -72184.56638         -72200.78918
        70              14.00000           4537.72136         -76721.71719           2979.08313         250556.51359         -72183.99583         -72200.87610
Updating chimesFF neighbor lists...
	Rank 0 3-body list size: 24017
	Rank 0 4-body list size: 37497
	...update complete
        71              14.20000           4536.13927         -76719.54269           2978.04447         250319.97759         -72183.40341         -72200.95272
        72              14.40000           4531.07184         -76713.84077           2974.71762         250244.70537         -72182.76893         -72200.99897
        73              14.60000           4521.78063         -76703.86105           2968.61780         250329.96115         -72182.08041         -72201.00346
        74              14.80000           4508.17791         -76689.50570           2959.68741         250576.66001         -72181.32779         -72200.95747
        75              15.00000           4490.89745         -76671.41853           2948.34252         250959.47618         -72180.52108         -72200.87322
        76              15.20000           4471.17456         -76650.85065           2935.39414         251451.67324         -72179.67609         -72200.76950
        77              15.40000           4450.50923         -76629.32921           2921.82704         252010.27796         -72178.81998         -72200.67713
        78              15.60000           4430.25355         -76608.22545           2908.52888         252604.20772         -72177.97190         -72200.61931
        79              15.80000           4411.27627         -76588.41157           2896.07001         253231.36881         -72177.13529         -72200.60368
        80              16.00000           4393.86258         -76570.15628           2884.63766         253890.69900         -72176.29370         -72200.61783
        81              16.20000           4377.87375         -76553.29626           2874.14074         254582.92331         -72175.42250         -72200.64098
        82              16.40000           4363.02942         -76537.53058           2864.39522         255307.57992         -72174.50116         -72200.65612
Updating chimesFF neighbor lists...
	Rank 0 3-body list size: 23150
	Rank 0 4-body list size: 36811
	...update complete
        83              16.60000           4349.17551         -76522.69122           2855.29991         256074.93495         -72173.51572         -72200.65266
        84              16.80000           4336.39952         -76508.86918           2846.91228         256871.79712         -72172.46966         -72200.63722
        85              17.00000           4324.97529         -76496.34469           2839.41210         257672.64891         -72171.36940         -72200.61931
        86              17.20000           4315.25116         -76485.46887           2833.02806         258439.40760         -72170.21771         -72200.60464
        87              17.40000           4307.51581         -76476.53709           2827.94969         259145.17154         -72169.02128         -72200.60270
        88              17.60000           4301.89767         -76469.67309           2824.26129         259784.95008         -72167.77543         -72200.61140
        89              17.80000           4298.36205         -76464.83686           2821.94011         260357.17159         -72166.47480         -72200.62770
        90              18.00000           4296.78129         -76461.88905           2820.90231         260873.39221         -72165.10777         -72200.64198
        91              18.20000           4297.01666         -76460.68729           2821.05683         261338.30770         -72163.67063         -72200.65229
        92              18.40000           4298.96626         -76461.12892           2822.33677         261751.36891         -72162.16266         -72200.65934
        93              18.60000           4302.55357         -76463.13920           2824.69190         262117.73616         -72160.58562         -72200.66609
        94              18.80000           4307.66719         -76466.61118           2828.04907         262424.87955         -72158.94399         -72200.67795
        95              19.00000           4314.11187         -76471.34759           2832.28010         262680.61115         -72157.23572         -72200.69357
        96              19.20000           4321.61410         -76477.07090           2837.20543         262900.23540         -72155.45680         -72200.70933
        97              19.40000           4329.84312         -76483.45274           2842.60790         263082.35222         -72153.60962         -72200.72777
Updating chimesFF neighbor lists...
	Rank 0 3-body list size: 23026
	Rank 0 4-body list size: 35685
	...update complete
        98              19.60000           4338.41652         -76490.10958           2848.23647         263235.78794         -72151.69306         -72200.74764
        99              19.80000           4346.88275         -76496.59433           2853.79468         263369.23026         -72149.71158         -72200.77303
       100              20.00000           4354.70349         -76502.36657           2858.92911         263483.68487         -72147.66309         -72200.80127
Loop time of 43.2117 on 36 procs for 100 steps with 512 atoms

Performance: 0.040 ns/day, 600.162 hours/ns, 2.314 timesteps/s, 1.185 katom-step/s
99.7% CPU use with 36 MPI tasks x no OpenMP threads

MPI task timing breakdown:
Section |  min time  |  avg time  |  max time  |%varavg| %total
---------------------------------------------------------------
Pair    | 4.8467     | 17.933     | 43.034     | 209.6 | 41.50
Neigh   | 0.047687   | 0.050094   | 0.05256    |   0.7 |  0.12
Comm    | 0.12356    | 25.223     | 38.31      | 176.8 | 58.37
Output  | 0.0021941  | 0.0023212  | 0.0038921  |   0.6 |  0.01
Modify  | 0.0010512  | 0.0012225  | 0.0013478  |   0.2 |  0.00
Other   |            | 0.002024   |            |       |  0.00

Nlocal:        14.2222 ave          20 max           7 min
Histogram: 2 0 3 3 3 8 9 4 2 2
Nghost:        1381.11 ave        1409 max        1348 min
Histogram: 1 3 4 4 6 4 2 4 3 5
Neighs:              0 ave           0 max           0 min
Histogram: 36 0 0 0 0 0 0 0 0 0
FullNghs:      4938.39 ave        6883 max        2475 min
Histogram: 2 0 4 2 3 10 5 6 2 2

Total # of neighbors = 177782
Ave neighs/atom = 347.23047
Neighbor list builds = 7
Dangerous builds = 0
Total wall time: 0:00:43
