LAMMPS (29 Aug 2024 - Update 1)
##########################################
# USER-SPECIFIED VARIABLES
##########################################

variable tstep               equal  0.5                                        # timestep in fs
variable run_steps           equal  100                                        # Number of steps to run
variable temperature         equal  3000                                       # Temperature (K)
variable pressure            equal  30                                         # Target pressure (atm)

variable io_freq             equal  10                                         # Frequency of dumping trajectory (500 steps, 250 fs)

variable data_file           string diamond_3.21gcc_512atoms.data.in
variable param_file          string ../../../../serial_interface/tests/force_fields/published_params.Carbon-2.0.Small.2+3+4b.Tersoff.txt

########################################
# GENERAL CONTROLS
########################################

units           real                          # Required for CHIMES pair style
newton          on                            # Required for CHIMES pair style
atom_style      atomic                        # Required for CHIMES pair style
atom_modify     sort 0 0.0                    # Prevent sorting (to maintain 3b parent/neighbor relationships)
atom_modify     map array                     # May improve efficiency

neighbor        1.5 bin
neigh_modify    delay 0 every 1 check yes

########################################
# INITIALIZATION CONTROLS
########################################

read_data       ${data_file}
read_data       diamond_3.21gcc_512atoms.data.in
Reading data file ...
  orthogonal box = (0 0 0) to (14.69002 14.69002 14.69002)
  3 by 3 by 4 MPI processor grid
  reading atoms ...
  512 atoms
  read_data CPU = 0.007 seconds
velocity        all create ${temperature} 1234 dist gaussian mom yes rot yes loop all  # Assign initial velocity (comment this line out when reading from a restart file)
velocity        all create 3000 1234 dist gaussian mom yes rot yes loop all  


########################################
# FORCE FIELD CONTROLS
########################################

pair_style      chimesFF
pair_coeff      * * ${param_file}
pair_coeff      * * ../../../../serial_interface/tests/force_fields/published_params.Carbon-2.0.Small.2+3+4b.Tersoff.txt


########################################
# RESTART CONTROLS
########################################

restart         ${io_freq} a.restart b.restart	 # Write restart files
restart         10 a.restart b.restart	 

########################################
# RUN, DUMP, AND THERMO CONTROLS
########################################

##### Set the ensemble
variable temp_damp  equal  v_tstep*100.0	# Temperature damping coefficient
variable press_damp equal  v_tstep*1000.0	# Pressure damping coefficient
fix             1 all nve

##### Define thermo output
thermo_style    custom step time temp press density ke pe etotal econserve
thermo_modify   line one format float %20.5f flush yes
thermo          ${io_freq}
thermo          10

##### Dump all atoms
#dump            dump_1 carbon ${io_freq} traj.lammpstrj id type element xu yu zu vx vy vz
#dump_modify     dump_1 sort id element C

##### Run the simulation

timestep        ${tstep}
timestep        0.5
run             ${run_steps} upto
run             100 upto

CITE-CITE-CITE-CITE-CITE-CITE-CITE-CITE-CITE-CITE-CITE-CITE-CITE

Your simulation uses code contributions which should be cited:

- Type Label Framework: https://doi.org/10.1021/acs.jpcb.3c08419

@Article{Gissinger24,
 author = {Jacob R. Gissinger, Ilia Nikiforov, Yaser Afshar, Brendon Waters, Moon-ki Choi, Daniel S. Karls, Alexander Stukowski, Wonpil Im, Hendrik Heinz, Axel Kohlmeyer, and Ellad B. Tadmor},
 title = {Type Label Framework for Bonded Force Fields in LAMMPS},
 journal = {J. Phys. Chem. B},
 year =    2024,
 volume =  128,
 number =  13,
 pages =   {3282–-3297}
}

CITE-CITE-CITE-CITE-CITE-CITE-CITE-CITE-CITE-CITE-CITE-CITE-CITE

Generated 0 of 0 mixed pair_coeff terms from geometric mixing rule
Neighbor list info ...
  update: every = 1 steps, delay = 0 steps, check = yes
  max neighbors/atom: 2000, page size: 100000
  master list distance cutoff = 6.5
  ghost atom cutoff = 6.5
  binsize = 3.25, bins = 5 5 5
  1 neighbor lists, perpetual/occasional/extra = 1 0 0
  (1) pair chimesFF, perpetual
      attributes: full, newton on, ghost
      pair build: full/bin/ghost
      stencil: full/ghost/bin/3d
      bin: standard
Per MPI rank memory allocation (min/avg/max) = 2.978 | 3.15 | 3.363 Mbytes
   Step          Time           Temp          Press         Density         KinEng         PotEng         TotEng       Econserve   
         0               0.00000           3000.00000        -243441.37095              3.22122           4569.58181        -106757.39823        -102187.81642        -102187.81642
        10               5.00000           1383.70754        -193104.65727              3.22122           2107.65493        -104290.08495        -102182.43002        -102182.43002
        20              10.00000            525.48289        -180169.00604              3.22122            800.41236        -102982.11770        -102181.70535        -102181.70535
        30              15.00000           1509.00203        -209534.38585              3.22122           2298.50274        -104483.16627        -102184.66352        -102184.66352
        40              20.00000           1711.64393        -213071.11740              3.22122           2607.16565        -104791.38598        -102184.22032        -102184.22032
        50              25.00000           1331.23454        -198489.79967              3.22122           2027.72838        -104210.88611        -102183.15773        -102183.15773
        60              30.00000           1476.35123        -196680.88643              3.22122           2248.76925        -104432.49565        -102183.72640        -102183.72640
        70              35.00000           1681.09063        -205372.97667              3.22122           2560.62705        -104745.24943        -102184.62237        -102184.62237
        80              40.00000           1311.60891        -205478.75872              3.22122           1997.83473        -104180.75029        -102182.91556        -102182.91556
        90              45.00000           1462.92345        -204181.01413              3.22122           2228.31612        -104412.22019        -102183.90407        -102183.90407
       100              50.00000           1539.29578        -198859.03638              3.22122           2344.64599        -104528.68384        -102184.03785        -102184.03785
Loop time of 7.79254 on 36 procs for 100 steps with 512 atoms

Performance: 0.554 ns/day, 43.292 hours/ns, 12.833 timesteps/s, 6.570 katom-step/s
99.7% CPU use with 36 MPI tasks x no OpenMP threads

MPI task timing breakdown:
Section |  min time  |  avg time  |  max time  |%varavg| %total
---------------------------------------------------------------
Pair    | 2.0967     | 4.518      | 7.4381     |  55.3 | 57.98
Neigh   | 0.02785    | 0.02979    | 0.0317     |   0.6 |  0.38
Comm    | 0.28342    | 3.2019     | 5.6214     |  65.7 | 41.09
Output  | 0.041924   | 0.041946   | 0.041965   |   0.0 |  0.54
Modify  | 4.911e-05  | 6.9698e-05 | 9.3857e-05 |   0.0 |  0.00
Other   |            | 0.0008311  |            |       |  0.01

Nlocal:        14.2222 ave          18 max          11 min
Histogram: 1 6 6 0 7 6 0 8 1 1
Nghost:        881.361 ave         917 max         826 min
Histogram: 1 3 0 3 9 4 0 0 12 4
Neighs:              0 ave           0 max           0 min
Histogram: 36 0 0 0 0 0 0 0 0 0
FullNghs:      2446.94 ave        3099 max        1891 min
Histogram: 1 6 6 0 7 6 0 8 1 1

Total # of neighbors = 88090
Ave neighs/atom = 172.05078
Neighbor list builds = 10
Dangerous builds = 0
Total wall time: 0:00:07
