LAMMPS (29 Oct 2020)
Reading data file ...
  triclinic box = (0.0000000 0.0000000 0.0000000) to (16.500000 16.500000 16.500000) with tilt (0.0000000 0.0000000 0.0000000)
  1 by 1 by 1 MPI processor grid
  reading atoms ...
  512 atoms
  read_data CPU = 0.002 seconds
chimesFF: 
chimesFF: 01000011011010001001001010011010100010101010011 0100010101101110110011101101001011011101100101  
chimesFF: 
chimesFF:       _____  _      _____  __  __  ______   _____   ______                _                      
chimesFF:      / ____|| |    |_   _||  \/  ||  ____| / ____| |  ____|              (_)                    
chimesFF:     | |     | |__    | |  | \  / || |__   | (___   | |__    _ __    __ _  _  _ __    ___        
chimesFF:     | |     | '_ \   | |  | |\/| ||  __|   \___ \  |  __|  | '_ \  / _` || || '_ \  / _ \ 
chimesFF:     | |____ | | | | _| |_ | |  | || |____  ____) | | |____ | | | || (_| || || | | ||  __/        
chimesFF:      \_____||_| |_||_____||_|  |_||______||_____/  |______||_| |_| \__, ||_||_| |_| \___|     
chimesFF:                                                                     __/ |                        
chimesFF:                                                                    |___/                         
chimesFF: 
chimesFF:                      Copyright (C) 2020 R.K. Lindsey, L.E. Fried, N. Goldman                     
chimesFF: 
chimesFF: 01000011011010001001001010011010100010101010011 0100010101101110110011101101001011011101100101   
chimesFF: 

************************* WARNING (pair_style chimesFF) ************************
Assuming n-body interactions have longer cutoffs than all (n+1)-body interactions
************************* WARNING (pair_style chimesFF) ************************

chimesFF: Reading parameters from file: published_params.HN3.2+3+4b.Tersoff.special.offsets.txt
chimesFF: Using respective 2, 3, and 4-body orders of: 12 8 4
chimesFF: Note: Ignoring polynomial domain; assuming [-1,1]
chimesFF: Will consider 2 atom types:
chimesFF: 	0 N
chimesFF: 	1 H
chimesFF: Will consider 3 atom pair types
chimesFF: Detected version 1 pair specification (with S_DELTA)
chimesFF: 	0 N N
chimesFF: 	1 H H
chimesFF: 	2 N H
chimesFF: Read the following pair type information:
chimesFF: 	N N r_cut_in: 0.79300 r_cut_out: 8.00000 MORSE 1.15000
chimesFF: 	H H r_cut_in: 0.45100 r_cut_out: 8.00000 MORSE 0.80000
chimesFF: 	N H r_cut_in: 0.66600 r_cut_out: 8.00000 MORSE 1.00000
chimesFF: Will use penalty distance: 0.02000
chimesFF: Will use penalty scaling: 1000000.00000
chimesFF: Will use cutoff style TERSOFF
 0.50000
chimesFF: Will use single atom energy offsets: 
chimesFF: 	1 N -126.82870
chimesFF: 	2 H -59.04023
chimesFF: Read 2B parameters for pair: 0 N N
chimesFF: 	0 17.34101
chimesFF: 	1 57.77412
chimesFF: 	2 76.22007
chimesFF: 	3 40.59795
chimesFF: 	4 -3.09095
chimesFF: 	5 -9.56832
chimesFF: 	6 -1.39845
chimesFF: 	7 -0.28488
chimesFF: 	8 -0.21732
chimesFF: 	9 0.15689
chimesFF: 	10 0.05672
chimesFF: 	11 0.21486
chimesFF: Read 2B parameters for pair: 1 H H
chimesFF: 	0 12.50579
chimesFF: 	1 28.82912
chimesFF: 	2 24.29593
chimesFF: 	3 9.35118
chimesFF: 	4 0.80954
chimesFF: 	5 1.10876
chimesFF: 	6 2.30883
chimesFF: 	7 -0.17154
chimesFF: 	8 0.03544
chimesFF: 	9 0.50123
chimesFF: 	10 -0.05626
chimesFF: 	11 0.20387
chimesFF: Read 2B parameters for pair: 2 N H
chimesFF: 	0 1.70148
chimesFF: 	1 10.54246
chimesFF: 	2 13.62490
chimesFF: 	3 -1.95162
chimesFF: 	4 -11.23382
chimesFF: 	5 -4.30822
chimesFF: 	6 -0.18965
chimesFF: 	7 -0.92108
chimesFF: 	8 -0.15935
chimesFF: 	9 0.26744
chimesFF: 	10 0.03469
chimesFF: 	11 0.00208
chimesFF: Built the following 2-body pair "slow" map:
chimesFF: 	1 HH(i: 0)
chimesFF: 	2 HN(i: 1)
chimesFF: 	2 NH(i: 2)
chimesFF: 	0 NN(i: 3)
chimesFF: Built the following 2-body pair "fast" map:
chimesFF: 	NN: 0 0
chimesFF: 	NH: 1 2
chimesFF: 	HN: 2 2
chimesFF: 	HH: 3 1
chimesFF: Read 3B parameters for triplet: 0 N N N
chimesFF: 	0 1 1 0.39720
chimesFF: 	1 0 1 0.39720
chimesFF: 	1 1 0 0.39720
chimesFF: 	0 1 2 -4.84645
chimesFF: 	1 0 2 -4.84645
chimesFF: 	0 2 1 -4.84645
chimesFF: 	2 0 1 -4.84645
chimesFF: 	1 2 0 -4.84645
chimesFF: 	2 1 0 -4.84645
chimesFF: 	0 1 3 -16.73805
chimesFF: 	1 0 3 -16.73805
chimesFF: 	0 3 1 -16.73805
chimesFF: 	3 0 1 -16.73805
chimesFF: 	1 3 0 -16.73805
chimesFF: 	3 1 0 -16.73805
chimesFF: 	0 1 4 -11.90359
chimesFF: 	1 0 4 -11.90359
chimesFF: 	0 4 1 -11.90359
chimesFF: 	4 0 1 -11.90359
chimesFF: 	1 4 0 -11.90359
chimesFF: 	4 1 0 -11.90359
chimesFF: 	0 1 6 -0.97567
chimesFF: 	1 0 6 -0.97567
chimesFF: 	0 6 1 -0.97567
chimesFF: 	6 0 1 -0.97567
chimesFF: 	1 6 0 -0.97567
chimesFF: 	6 1 0 -0.97567
chimesFF: 	0 2 2 47.18906
chimesFF: 	2 0 2 47.18906
chimesFF: 	2 2 0 47.18906
chimesFF: 	0 2 3 27.59648
chimesFF: 	2 0 3 27.59648
chimesFF: 	0 3 2 27.59648
chimesFF: 	3 0 2 27.59648
chimesFF: 	2 3 0 27.59648
chimesFF: 	3 2 0 27.59648
chimesFF: 	0 2 4 21.47485
chimesFF: 	2 0 4 21.47485
chimesFF: 	0 4 2 21.47485
chimesFF: 	4 0 2 21.47485
chimesFF: 	2 4 0 21.47485
chimesFF: 	4 2 0 21.47485
chimesFF: 	0 2 5 5.57546
chimesFF: 	2 0 5 5.57546
chimesFF: 	0 5 2 5.57546
chimesFF: 	5 0 2 5.57546
chimesFF: 	2 5 0 5.57546
chimesFF: 	5 2 0 5.57546
chimesFF: 	0 3 4 2.81980
chimesFF: 	3 0 4 2.81980
chimesFF: 	0 4 3 2.81980
chimesFF: 	4 0 3 2.81980
chimesFF: 	3 4 0 2.81980
chimesFF: 	4 3 0 2.81980
chimesFF: 	0 3 5 4.12253
chimesFF: 	3 0 5 4.12253
chimesFF: 	0 5 3 4.12253
chimesFF: 	5 0 3 4.12253
chimesFF: 	3 5 0 4.12253
chimesFF: 	5 3 0 4.12253
chimesFF: 	0 3 7 -0.13001
chimesFF: 	3 0 7 -0.13001
chimesFF: 	0 7 3 -0.13001
chimesFF: 	7 0 3 -0.13001
chimesFF: 	3 7 0 -0.13001
chimesFF: 	7 3 0 -0.13001
chimesFF: 	0 4 4 -16.97178
chimesFF: 	4 0 4 -16.97178
chimesFF: 	4 4 0 -16.97178
chimesFF: 	0 4 5 -13.73999
chimesFF: 	4 0 5 -13.73999
chimesFF: 	0 5 4 -13.73999
chimesFF: 	5 0 4 -13.73999
chimesFF: 	4 5 0 -13.73999
chimesFF: 	5 4 0 -13.73999
chimesFF: 	0 4 6 -1.43174
chimesFF: 	4 0 6 -1.43174
chimesFF: 	0 6 4 -1.43174
chimesFF: 	6 0 4 -1.43174
chimesFF: 	4 6 0 -1.43174
chimesFF: 	6 4 0 -1.43174
chimesFF: 	0 4 7 2.87682
chimesFF: 	4 0 7 2.87682
chimesFF: 	0 7 4 2.87682
chimesFF: 	7 0 4 2.87682
chimesFF: 	4 7 0 2.87682
chimesFF: 	7 4 0 2.87682
chimesFF: 	0 5 5 -9.21314
chimesFF: 	5 0 5 -9.21314
chimesFF: 	5 5 0 -9.21314
chimesFF: 	0 5 6 -2.51581
chimesFF: 	5 0 6 -2.51581
chimesFF: 	0 6 5 -2.51581
chimesFF: 	6 0 5 -2.51581
chimesFF: 	5 6 0 -2.51581
chimesFF: 	6 5 0 -2.51581
chimesFF: 	0 5 7 1.50964
chimesFF: 	5 0 7 1.50964
chimesFF: 	0 7 5 1.50964
chimesFF: 	7 0 5 1.50964
chimesFF: 	5 7 0 1.50964
chimesFF: 	7 5 0 1.50964
chimesFF: 	0 6 6 1.64118
chimesFF: 	6 0 6 1.64118
chimesFF: 	6 6 0 1.64118
chimesFF: 	0 7 7 -0.46583
chimesFF: 	7 0 7 -0.46583
chimesFF: 	7 7 0 -0.46583
chimesFF: 	1 1 2 -30.33657
chimesFF: 	1 2 1 -30.33657
chimesFF: 	2 1 1 -30.33657
chimesFF: 	1 1 3 -55.32286
chimesFF: 	1 3 1 -55.32286
chimesFF: 	3 1 1 -55.32286
chimesFF: 	1 1 4 -29.84235
chimesFF: 	1 4 1 -29.84235
chimesFF: 	4 1 1 -29.84235
chimesFF: 	1 1 5 14.80393
chimesFF: 	1 5 1 14.80393
chimesFF: 	5 1 1 14.80393
chimesFF: 	1 1 7 1.62255
chimesFF: 	1 7 1 1.62255
chimesFF: 	7 1 1 1.62255
chimesFF: 	1 2 2 20.39302
chimesFF: 	2 1 2 20.39302
chimesFF: 	2 2 1 20.39302
chimesFF: 	1 2 3 5.57926
chimesFF: 	2 1 3 5.57926
chimesFF: 	1 3 2 5.57926
chimesFF: 	3 1 2 5.57926
chimesFF: 	2 3 1 5.57926
chimesFF: 	3 2 1 5.57926
chimesFF: 	1 2 4 24.06202
chimesFF: 	2 1 4 24.06202
chimesFF: 	1 4 2 24.06202
chimesFF: 	4 1 2 24.06202
chimesFF: 	2 4 1 24.06202
chimesFF: 	4 2 1 24.06202
chimesFF: 	1 2 5 19.14394
chimesFF: 	2 1 5 19.14394
chimesFF: 	1 5 2 19.14394
chimesFF: 	5 1 2 19.14394
chimesFF: 	2 5 1 19.14394
chimesFF: 	5 2 1 19.14394
chimesFF: 	1 2 6 -3.84217
chimesFF: 	2 1 6 -3.84217
chimesFF: 	1 6 2 -3.84217
chimesFF: 	6 1 2 -3.84217
chimesFF: 	2 6 1 -3.84217
chimesFF: 	6 2 1 -3.84217
chimesFF: 	1 2 7 -1.13923
chimesFF: 	2 1 7 -1.13923
chimesFF: 	1 7 2 -1.13923
chimesFF: 	7 1 2 -1.13923
chimesFF: 	2 7 1 -1.13923
chimesFF: 	7 2 1 -1.13923
chimesFF: 	1 3 4 16.51537
chimesFF: 	3 1 4 16.51537
chimesFF: 	1 4 3 16.51537
chimesFF: 	4 1 3 16.51537
chimesFF: 	3 4 1 16.51537
chimesFF: 	4 3 1 16.51537
chimesFF: 	1 3 5 22.18066
chimesFF: 	3 1 5 22.18066
chimesFF: 	1 5 3 22.18066
chimesFF: 	5 1 3 22.18066
chimesFF: 	3 5 1 22.18066
chimesFF: 	5 3 1 22.18066
chimesFF: 	1 3 6 -1.41820
chimesFF: 	3 1 6 -1.41820
chimesFF: 	1 6 3 -1.41820
chimesFF: 	6 1 3 -1.41820
chimesFF: 	3 6 1 -1.41820
chimesFF: 	6 3 1 -1.41820
chimesFF: 	1 3 7 -0.85161
chimesFF: 	3 1 7 -0.85161
chimesFF: 	1 7 3 -0.85161
chimesFF: 	7 1 3 -0.85161
chimesFF: 	3 7 1 -0.85161
chimesFF: 	7 3 1 -0.85161
chimesFF: 	1 4 4 -16.84449
chimesFF: 	4 1 4 -16.84449
chimesFF: 	4 4 1 -16.84449
chimesFF: 	1 4 5 -15.41457
chimesFF: 	4 1 5 -15.41457
chimesFF: 	1 5 4 -15.41457
chimesFF: 	5 1 4 -15.41457
chimesFF: 	4 5 1 -15.41457
chimesFF: 	5 4 1 -15.41457
chimesFF: 	1 4 6 -2.08317
chimesFF: 	4 1 6 -2.08317
chimesFF: 	1 6 4 -2.08317
chimesFF: 	6 1 4 -2.08317
chimesFF: 	4 6 1 -2.08317
chimesFF: 	6 4 1 -2.08317
chimesFF: 	1 4 7 3.87208
chimesFF: 	4 1 7 3.87208
chimesFF: 	1 7 4 3.87208
chimesFF: 	7 1 4 3.87208
chimesFF: 	4 7 1 3.87208
chimesFF: 	7 4 1 3.87208
chimesFF: 	1 5 5 -6.84778
chimesFF: 	5 1 5 -6.84778
chimesFF: 	5 5 1 -6.84778
chimesFF: 	1 5 7 4.80961
chimesFF: 	5 1 7 4.80961
chimesFF: 	1 7 5 4.80961
chimesFF: 	7 1 5 4.80961
chimesFF: 	5 7 1 4.80961
chimesFF: 	7 5 1 4.80961
chimesFF: 	1 6 6 3.00167
chimesFF: 	6 1 6 3.00167
chimesFF: 	6 6 1 3.00167
chimesFF: 	1 6 7 -0.00430
chimesFF: 	6 1 7 -0.00430
chimesFF: 	1 7 6 -0.00430
chimesFF: 	7 1 6 -0.00430
chimesFF: 	6 7 1 -0.00430
chimesFF: 	7 6 1 -0.00430
chimesFF: 	1 7 7 -0.61254
chimesFF: 	7 1 7 -0.61254
chimesFF: 	7 7 1 -0.61254
chimesFF: 	2 2 3 -28.52858
chimesFF: 	2 3 2 -28.52858
chimesFF: 	3 2 2 -28.52858
chimesFF: 	2 2 4 5.50437
chimesFF: 	2 4 2 5.50437
chimesFF: 	4 2 2 5.50437
chimesFF: 	2 2 6 -9.93953
chimesFF: 	2 6 2 -9.93953
chimesFF: 	6 2 2 -9.93953
chimesFF: 	2 2 7 -3.11371
chimesFF: 	2 7 2 -3.11371
chimesFF: 	7 2 2 -3.11371
chimesFF: 	2 3 3 -27.10108
chimesFF: 	3 2 3 -27.10108
chimesFF: 	3 3 2 -27.10108
chimesFF: 	2 3 5 3.75198
chimesFF: 	3 2 5 3.75198
chimesFF: 	2 5 3 3.75198
chimesFF: 	5 2 3 3.75198
chimesFF: 	3 5 2 3.75198
chimesFF: 	5 3 2 3.75198
chimesFF: 	2 3 6 -4.69269
chimesFF: 	3 2 6 -4.69269
chimesFF: 	2 6 3 -4.69269
chimesFF: 	6 2 3 -4.69269
chimesFF: 	3 6 2 -4.69269
chimesFF: 	6 3 2 -4.69269
chimesFF: 	2 3 7 -1.23912
chimesFF: 	3 2 7 -1.23912
chimesFF: 	2 7 3 -1.23912
chimesFF: 	7 2 3 -1.23912
chimesFF: 	3 7 2 -1.23912
chimesFF: 	7 3 2 -1.23912
chimesFF: 	2 4 4 -7.29495
chimesFF: 	4 2 4 -7.29495
chimesFF: 	4 4 2 -7.29495
chimesFF: 	2 4 5 -13.74132
chimesFF: 	4 2 5 -13.74132
chimesFF: 	2 5 4 -13.74132
chimesFF: 	5 2 4 -13.74132
chimesFF: 	4 5 2 -13.74132
chimesFF: 	5 4 2 -13.74132
chimesFF: 	2 4 7 1.86778
chimesFF: 	4 2 7 1.86778
chimesFF: 	2 7 4 1.86778
chimesFF: 	7 2 4 1.86778
chimesFF: 	4 7 2 1.86778
chimesFF: 	7 4 2 1.86778
chimesFF: 	2 5 5 -8.59951
chimesFF: 	5 2 5 -8.59951
chimesFF: 	5 5 2 -8.59951
chimesFF: 	2 5 7 5.06576
chimesFF: 	5 2 7 5.06576
chimesFF: 	2 7 5 5.06576
chimesFF: 	7 2 5 5.06576
chimesFF: 	5 7 2 5.06576
chimesFF: 	7 5 2 5.06576
chimesFF: 	2 6 6 0.22279
chimesFF: 	6 2 6 0.22279
chimesFF: 	6 6 2 0.22279
chimesFF: 	2 6 7 0.63089
chimesFF: 	6 2 7 0.63089
chimesFF: 	2 7 6 0.63089
chimesFF: 	7 2 6 0.63089
chimesFF: 	6 7 2 0.63089
chimesFF: 	7 6 2 0.63089
chimesFF: 	2 7 7 0.56010
chimesFF: 	7 2 7 0.56010
chimesFF: 	7 7 2 0.56010
chimesFF: 	3 3 4 5.68176
chimesFF: 	3 4 3 5.68176
chimesFF: 	4 3 3 5.68176
chimesFF: 	3 3 6 -1.25919
chimesFF: 	3 6 3 -1.25919
chimesFF: 	6 3 3 -1.25919
chimesFF: 	3 4 5 -12.79565
chimesFF: 	4 3 5 -12.79565
chimesFF: 	3 5 4 -12.79565
chimesFF: 	5 3 4 -12.79565
chimesFF: 	4 5 3 -12.79565
chimesFF: 	5 4 3 -12.79565
chimesFF: 	3 4 6 3.06665
chimesFF: 	4 3 6 3.06665
chimesFF: 	3 6 4 3.06665
chimesFF: 	6 3 4 3.06665
chimesFF: 	4 6 3 3.06665
chimesFF: 	6 4 3 3.06665
chimesFF: 	3 4 7 2.53961
chimesFF: 	4 3 7 2.53961
chimesFF: 	3 7 4 2.53961
chimesFF: 	7 3 4 2.53961
chimesFF: 	4 7 3 2.53961
chimesFF: 	7 4 3 2.53961
chimesFF: 	3 5 5 -6.70061
chimesFF: 	5 3 5 -6.70061
chimesFF: 	5 5 3 -6.70061
chimesFF: 	3 5 6 3.84011
chimesFF: 	5 3 6 3.84011
chimesFF: 	3 6 5 3.84011
chimesFF: 	6 3 5 3.84011
chimesFF: 	5 6 3 3.84011
chimesFF: 	6 5 3 3.84011
chimesFF: 	3 5 7 6.68085
chimesFF: 	5 3 7 6.68085
chimesFF: 	3 7 5 6.68085
chimesFF: 	7 3 5 6.68085
chimesFF: 	5 7 3 6.68085
chimesFF: 	7 5 3 6.68085
chimesFF: 	3 6 7 0.73218
chimesFF: 	6 3 7 0.73218
chimesFF: 	3 7 6 0.73218
chimesFF: 	7 3 6 0.73218
chimesFF: 	6 7 3 0.73218
chimesFF: 	7 6 3 0.73218
chimesFF: 	3 7 7 -0.32568
chimesFF: 	7 3 7 -0.32568
chimesFF: 	7 7 3 -0.32568
chimesFF: 	4 4 4 1.36417
chimesFF: 	4 4 5 -15.91062
chimesFF: 	4 5 4 -15.91062
chimesFF: 	5 4 4 -15.91062
chimesFF: 	4 4 6 2.42116
chimesFF: 	4 6 4 2.42116
chimesFF: 	6 4 4 2.42116
chimesFF: 	4 4 7 3.85294
chimesFF: 	4 7 4 3.85294
chimesFF: 	7 4 4 3.85294
chimesFF: 	4 5 5 -10.90774
chimesFF: 	5 4 5 -10.90774
chimesFF: 	5 5 4 -10.90774
chimesFF: 	4 5 6 1.69180
chimesFF: 	5 4 6 1.69180
chimesFF: 	4 6 5 1.69180
chimesFF: 	6 4 5 1.69180
chimesFF: 	5 6 4 1.69180
chimesFF: 	6 5 4 1.69180
chimesFF: 	4 5 7 5.80297
chimesFF: 	5 4 7 5.80297
chimesFF: 	4 7 5 5.80297
chimesFF: 	7 4 5 5.80297
chimesFF: 	5 7 4 5.80297
chimesFF: 	7 5 4 5.80297
chimesFF: 	4 6 7 1.37387
chimesFF: 	6 4 7 1.37387
chimesFF: 	4 7 6 1.37387
chimesFF: 	7 4 6 1.37387
chimesFF: 	6 7 4 1.37387
chimesFF: 	7 6 4 1.37387
chimesFF: 	4 7 7 -0.26220
chimesFF: 	7 4 7 -0.26220
chimesFF: 	7 7 4 -0.26220
chimesFF: 	5 5 6 3.43057
chimesFF: 	5 6 5 3.43057
chimesFF: 	6 5 5 3.43057
chimesFF: 	5 5 7 4.65793
chimesFF: 	5 7 5 4.65793
chimesFF: 	7 5 5 4.65793
chimesFF: 	5 7 7 -1.20317
chimesFF: 	7 5 7 -1.20317
chimesFF: 	7 7 5 -1.20317
chimesFF: 	6 6 6 -1.23947
chimesFF: 	6 6 7 -1.60595
chimesFF: 	6 7 6 -1.60595
chimesFF: 	7 6 6 -1.60595
chimesFF: 	6 7 7 -1.74794
chimesFF: 	7 6 7 -1.74794
chimesFF: 	7 7 6 -1.74794
chimesFF: 	7 7 7 -1.36788
chimesFF: Read 3B parameters for triplet: 1 H N N
chimesFF: 	0 1 1 -10.32103
chimesFF: 	1 0 1 -10.32103
chimesFF: 	0 1 2 -4.13403
chimesFF: 	1 0 2 -4.13403
chimesFF: 	0 1 3 -15.97583
chimesFF: 	1 0 3 -15.97583
chimesFF: 	0 1 4 -11.39616
chimesFF: 	1 0 4 -11.39616
chimesFF: 	0 1 5 -2.94932
chimesFF: 	1 0 5 -2.94932
chimesFF: 	0 1 7 1.54101
chimesFF: 	1 0 7 1.54101
chimesFF: 	0 2 1 -33.00108
chimesFF: 	2 0 1 -33.00108
chimesFF: 	0 2 2 15.54348
chimesFF: 	2 0 2 15.54348
chimesFF: 	0 2 3 8.41316
chimesFF: 	2 0 3 8.41316
chimesFF: 	0 2 4 13.59631
chimesFF: 	2 0 4 13.59631
chimesFF: 	0 2 5 -1.64640
chimesFF: 	2 0 5 -1.64640
chimesFF: 	0 2 6 -0.11216
chimesFF: 	2 0 6 -0.11216
chimesFF: 	0 3 1 -12.60712
chimesFF: 	3 0 1 -12.60712
chimesFF: 	0 3 2 7.26406
chimesFF: 	3 0 2 7.26406
chimesFF: 	0 3 5 0.32000
chimesFF: 	3 0 5 0.32000
chimesFF: 	0 3 6 1.47109
chimesFF: 	3 0 6 1.47109
chimesFF: 	0 3 7 0.81762
chimesFF: 	3 0 7 0.81762
chimesFF: 	0 4 1 -2.01726
chimesFF: 	4 0 1 -2.01726
chimesFF: 	0 4 2 8.48586
chimesFF: 	4 0 2 8.48586
chimesFF: 	0 4 3 10.19843
chimesFF: 	4 0 3 10.19843
chimesFF: 	0 4 4 2.79024
chimesFF: 	4 0 4 2.79024
chimesFF: 	0 4 5 -2.00650
chimesFF: 	4 0 5 -2.00650
chimesFF: 	0 4 7 0.19822
chimesFF: 	4 0 7 0.19822
chimesFF: 	0 5 2 -0.65837
chimesFF: 	5 0 2 -0.65837
chimesFF: 	0 5 4 -0.80867
chimesFF: 	5 0 4 -0.80867
chimesFF: 	0 5 5 0.85030
chimesFF: 	5 0 5 0.85030
chimesFF: 	0 6 1 0.56494
chimesFF: 	6 0 1 0.56494
chimesFF: 	0 6 2 5.16867
chimesFF: 	6 0 2 5.16867
chimesFF: 	0 6 3 2.38532
chimesFF: 	6 0 3 2.38532
chimesFF: 	0 6 4 0.63400
chimesFF: 	6 0 4 0.63400
chimesFF: 	0 6 5 -0.06687
chimesFF: 	6 0 5 -0.06687
chimesFF: 	0 6 6 0.67272
chimesFF: 	6 0 6 0.67272
chimesFF: 	0 6 7 0.10507
chimesFF: 	6 0 7 0.10507
chimesFF: 	0 7 1 1.31957
chimesFF: 	7 0 1 1.31957
chimesFF: 	0 7 2 0.44724
chimesFF: 	7 0 2 0.44724
chimesFF: 	0 7 4 0.44789
chimesFF: 	7 0 4 0.44789
chimesFF: 	0 7 5 1.23483
chimesFF: 	7 0 5 1.23483
chimesFF: 	0 7 6 -0.14122
chimesFF: 	7 0 6 -0.14122
chimesFF: 	0 7 7 -0.65140
chimesFF: 	7 0 7 -0.65140
chimesFF: 	1 1 0 5.45356
chimesFF: 	1 1 3 -35.72355
chimesFF: 	1 1 4 -28.85577
chimesFF: 	1 1 6 1.43966
chimesFF: 	1 1 7 4.75919
chimesFF: 	1 2 0 5.93782
chimesFF: 	2 1 0 5.93782
chimesFF: 	1 2 1 -21.71469
chimesFF: 	2 1 1 -21.71469
chimesFF: 	1 2 2 19.18583
chimesFF: 	2 1 2 19.18583
chimesFF: 	1 2 3 4.46855
chimesFF: 	2 1 3 4.46855
chimesFF: 	1 2 4 10.58751
chimesFF: 	2 1 4 10.58751
chimesFF: 	1 2 5 0.80242
chimesFF: 	2 1 5 0.80242
chimesFF: 	1 2 6 -1.15960
chimesFF: 	2 1 6 -1.15960
chimesFF: 	1 3 0 -2.99640
chimesFF: 	3 1 0 -2.99640
chimesFF: 	1 3 1 -6.10380
chimesFF: 	3 1 1 -6.10380
chimesFF: 	1 3 2 4.55410
chimesFF: 	3 1 2 4.55410
chimesFF: 	1 3 3 -0.58088
chimesFF: 	3 1 3 -0.58088
chimesFF: 	1 3 4 -1.65197
chimesFF: 	3 1 4 -1.65197
chimesFF: 	1 3 5 6.87203
chimesFF: 	3 1 5 6.87203
chimesFF: 	1 3 6 0.65080
chimesFF: 	3 1 6 0.65080
chimesFF: 	1 3 7 0.49778
chimesFF: 	3 1 7 0.49778
chimesFF: 	1 4 0 -0.88402
chimesFF: 	4 1 0 -0.88402
chimesFF: 	1 4 1 -3.44295
chimesFF: 	4 1 1 -3.44295
chimesFF: 	1 4 3 4.82825
chimesFF: 	4 1 3 4.82825
chimesFF: 	1 4 5 -0.30313
chimesFF: 	4 1 5 -0.30313
chimesFF: 	1 4 7 0.61398
chimesFF: 	4 1 7 0.61398
chimesFF: 	1 5 0 -3.05916
chimesFF: 	5 1 0 -3.05916
chimesFF: 	1 5 2 -0.97476
chimesFF: 	5 1 2 -0.97476
chimesFF: 	1 5 3 0.30977
chimesFF: 	5 1 3 0.30977
chimesFF: 	1 5 5 3.01439
chimesFF: 	5 1 5 3.01439
chimesFF: 	1 5 6 -1.01194
chimesFF: 	5 1 6 -1.01194
chimesFF: 	1 5 7 0.10858
chimesFF: 	5 1 7 0.10858
chimesFF: 	1 6 0 0.18958
chimesFF: 	6 1 0 0.18958
chimesFF: 	1 6 2 3.92871
chimesFF: 	6 1 2 3.92871
chimesFF: 	1 6 4 0.30262
chimesFF: 	6 1 4 0.30262
chimesFF: 	1 6 5 -0.92675
chimesFF: 	6 1 5 -0.92675
chimesFF: 	1 6 6 0.09781
chimesFF: 	6 1 6 0.09781
chimesFF: 	1 6 7 -0.08213
chimesFF: 	6 1 7 -0.08213
chimesFF: 	1 7 1 3.86155
chimesFF: 	7 1 1 3.86155
chimesFF: 	1 7 2 0.88783
chimesFF: 	7 1 2 0.88783
chimesFF: 	1 7 3 0.17873
chimesFF: 	7 1 3 0.17873
chimesFF: 	1 7 5 1.67297
chimesFF: 	7 1 5 1.67297
chimesFF: 	1 7 6 -0.82102
chimesFF: 	7 1 6 -0.82102
chimesFF: 	1 7 7 -1.09842
chimesFF: 	7 1 7 -1.09842
chimesFF: 	2 2 0 16.20452
chimesFF: 	2 2 5 -12.57387
chimesFF: 	2 2 6 -3.88512
chimesFF: 	2 2 7 -1.62029
chimesFF: 	2 3 0 -1.04749
chimesFF: 	3 2 0 -1.04749
chimesFF: 	2 3 3 8.53854
chimesFF: 	3 2 3 8.53854
chimesFF: 	2 3 5 -3.67112
chimesFF: 	3 2 5 -3.67112
chimesFF: 	2 3 6 -4.80741
chimesFF: 	3 2 6 -4.80741
chimesFF: 	2 3 7 -1.95372
chimesFF: 	3 2 7 -1.95372
chimesFF: 	2 4 0 6.38008
chimesFF: 	4 2 0 6.38008
chimesFF: 	2 4 1 -1.01217
chimesFF: 	4 2 1 -1.01217
chimesFF: 	2 4 3 0.64005
chimesFF: 	4 2 3 0.64005
chimesFF: 	2 4 5 -4.22720
chimesFF: 	4 2 5 -4.22720
chimesFF: 	2 5 0 -3.38956
chimesFF: 	5 2 0 -3.38956
chimesFF: 	2 5 2 7.73073
chimesFF: 	5 2 2 7.73073
chimesFF: 	2 5 3 2.61661
chimesFF: 	5 2 3 2.61661
chimesFF: 	2 5 4 1.62288
chimesFF: 	5 2 4 1.62288
chimesFF: 	2 5 5 -0.60789
chimesFF: 	5 2 5 -0.60789
chimesFF: 	2 5 6 -2.00064
chimesFF: 	5 2 6 -2.00064
chimesFF: 	2 5 7 -0.36913
chimesFF: 	5 2 7 -0.36913
chimesFF: 	2 6 0 1.73339
chimesFF: 	6 2 0 1.73339
chimesFF: 	2 6 3 -4.91961
chimesFF: 	6 2 3 -4.91961
chimesFF: 	2 6 4 -0.41412
chimesFF: 	6 2 4 -0.41412
chimesFF: 	2 6 5 -0.75559
chimesFF: 	6 2 5 -0.75559
chimesFF: 	2 6 6 1.65156
chimesFF: 	6 2 6 1.65156
chimesFF: 	2 6 7 0.36449
chimesFF: 	6 2 7 0.36449
chimesFF: 	2 7 0 -2.28195
chimesFF: 	7 2 0 -2.28195
chimesFF: 	2 7 3 -1.75439
chimesFF: 	7 2 3 -1.75439
chimesFF: 	2 7 4 -1.41681
chimesFF: 	7 2 4 -1.41681
chimesFF: 	2 7 6 -0.51678
chimesFF: 	7 2 6 -0.51678
chimesFF: 	2 7 7 -0.70941
chimesFF: 	7 2 7 -0.70941
chimesFF: 	3 3 0 -7.47478
chimesFF: 	3 3 3 10.35225
chimesFF: 	3 3 4 1.61120
chimesFF: 	3 3 6 -8.98224
chimesFF: 	3 3 7 -4.12544
chimesFF: 	3 4 0 3.87615
chimesFF: 	4 3 0 3.87615
chimesFF: 	3 4 1 3.92344
chimesFF: 	4 3 1 3.92344
chimesFF: 	3 4 4 0.50134
chimesFF: 	4 3 4 0.50134
chimesFF: 	3 4 5 0.04381
chimesFF: 	4 3 5 0.04381
chimesFF: 	3 4 6 -1.79669
chimesFF: 	4 3 6 -1.79669
chimesFF: 	3 4 7 -1.29974
chimesFF: 	4 3 7 -1.29974
chimesFF: 	3 5 0 -3.17353
chimesFF: 	5 3 0 -3.17353
chimesFF: 	3 5 1 5.39384
chimesFF: 	5 3 1 5.39384
chimesFF: 	3 5 2 6.29314
chimesFF: 	5 3 2 6.29314
chimesFF: 	3 5 3 4.31423
chimesFF: 	5 3 3 4.31423
chimesFF: 	3 5 6 -3.49821
chimesFF: 	5 3 6 -3.49821
chimesFF: 	3 5 7 -0.41040
chimesFF: 	5 3 7 -0.41040
chimesFF: 	3 6 2 -2.03817
chimesFF: 	6 3 2 -2.03817
chimesFF: 	3 6 3 -2.39772
chimesFF: 	6 3 3 -2.39772
chimesFF: 	3 6 4 -0.12948
chimesFF: 	6 3 4 -0.12948
chimesFF: 	3 6 5 -0.17773
chimesFF: 	6 3 5 -0.17773
chimesFF: 	3 7 0 -1.60446
chimesFF: 	7 3 0 -1.60446
chimesFF: 	3 7 2 -0.47581
chimesFF: 	7 3 2 -0.47581
chimesFF: 	3 7 3 -1.06761
chimesFF: 	7 3 3 -1.06761
chimesFF: 	3 7 4 -1.08974
chimesFF: 	7 3 4 -1.08974
chimesFF: 	3 7 6 -0.43156
chimesFF: 	7 3 6 -0.43156
chimesFF: 	3 7 7 -0.33975
chimesFF: 	7 3 7 -0.33975
chimesFF: 	4 4 0 3.28607
chimesFF: 	4 4 3 -1.64022
chimesFF: 	4 4 4 1.79896
chimesFF: 	4 4 5 0.70028
chimesFF: 	4 4 6 0.93628
chimesFF: 	4 4 7 -0.75287
chimesFF: 	4 5 0 -1.46485
chimesFF: 	5 4 0 -1.46485
chimesFF: 	4 5 3 -0.73927
chimesFF: 	5 4 3 -0.73927
chimesFF: 	4 5 4 -1.33890
chimesFF: 	5 4 4 -1.33890
chimesFF: 	4 5 6 -1.27320
chimesFF: 	5 4 6 -1.27320
chimesFF: 	4 5 7 -0.03944
chimesFF: 	5 4 7 -0.03944
chimesFF: 	4 6 0 0.93812
chimesFF: 	6 4 0 0.93812
chimesFF: 	4 6 3 -0.82307
chimesFF: 	6 4 3 -0.82307
chimesFF: 	4 6 4 0.45361
chimesFF: 	6 4 4 0.45361
chimesFF: 	4 6 5 0.64858
chimesFF: 	6 4 5 0.64858
chimesFF: 	4 6 6 0.75815
chimesFF: 	6 4 6 0.75815
chimesFF: 	4 7 0 0.41885
chimesFF: 	7 4 0 0.41885
chimesFF: 	4 7 1 0.66659
chimesFF: 	7 4 1 0.66659
chimesFF: 	4 7 3 -0.60516
chimesFF: 	7 4 3 -0.60516
chimesFF: 	4 7 4 0.43888
chimesFF: 	7 4 4 0.43888
chimesFF: 	4 7 5 0.82076
chimesFF: 	7 4 5 0.82076
chimesFF: 	4 7 6 0.52626
chimesFF: 	7 4 6 0.52626
chimesFF: 	4 7 7 -0.11961
chimesFF: 	7 4 7 -0.11961
chimesFF: 	5 5 1 0.35112
chimesFF: 	5 5 2 -1.36435
chimesFF: 	5 5 3 -0.02934
chimesFF: 	5 5 4 -1.81561
chimesFF: 	5 5 5 0.44579
chimesFF: 	5 5 6 -1.35110
chimesFF: 	5 5 7 0.87799
chimesFF: 	5 6 0 1.04909
chimesFF: 	6 5 0 1.04909
chimesFF: 	5 6 1 -0.05140
chimesFF: 	6 5 1 -0.05140
chimesFF: 	5 6 3 0.78402
chimesFF: 	6 5 3 0.78402
chimesFF: 	5 6 5 0.44397
chimesFF: 	6 5 5 0.44397
chimesFF: 	5 6 6 -0.13096
chimesFF: 	6 5 6 -0.13096
chimesFF: 	5 6 7 0.37827
chimesFF: 	6 5 7 0.37827
chimesFF: 	5 7 0 0.86582
chimesFF: 	7 5 0 0.86582
chimesFF: 	5 7 1 1.00268
chimesFF: 	7 5 1 1.00268
chimesFF: 	5 7 2 -0.08631
chimesFF: 	7 5 2 -0.08631
chimesFF: 	5 7 3 0.73571
chimesFF: 	7 5 3 0.73571
chimesFF: 	5 7 4 0.51085
chimesFF: 	7 5 4 0.51085
chimesFF: 	5 7 5 0.94961
chimesFF: 	7 5 5 0.94961
chimesFF: 	5 7 6 0.47324
chimesFF: 	7 5 6 0.47324
chimesFF: 	5 7 7 0.26801
chimesFF: 	7 5 7 0.26801
chimesFF: 	6 6 0 1.39438
chimesFF: 	6 6 2 0.18645
chimesFF: 	6 6 3 0.37219
chimesFF: 	6 6 6 0.01205
chimesFF: 	6 7 0 0.48471
chimesFF: 	7 6 0 0.48471
chimesFF: 	6 7 1 -0.36210
chimesFF: 	7 6 1 -0.36210
chimesFF: 	6 7 2 -0.40548
chimesFF: 	7 6 2 -0.40548
chimesFF: 	6 7 3 -0.19993
chimesFF: 	7 6 3 -0.19993
chimesFF: 	6 7 4 0.07318
chimesFF: 	7 6 4 0.07318
chimesFF: 	6 7 6 0.19478
chimesFF: 	7 6 6 0.19478
chimesFF: 	6 7 7 0.00843
chimesFF: 	7 6 7 0.00843
chimesFF: 	7 7 0 0.28090
chimesFF: 	7 7 1 0.09612
chimesFF: 	7 7 3 0.16791
chimesFF: 	7 7 4 -0.03816
chimesFF: 	7 7 5 0.20746
chimesFF: 	7 7 6 0.29419
chimesFF: 	7 7 7 0.20634
chimesFF: Read 3B parameters for triplet: 2 H H N
chimesFF: 	0 1 1 -1.72690
chimesFF: 	0 1 3 0.27552
chimesFF: 	0 3 1 0.27552
chimesFF: 	0 1 5 1.43957
chimesFF: 	0 5 1 1.43957
chimesFF: 	0 1 7 -0.14777
chimesFF: 	0 7 1 -0.14777
chimesFF: 	0 2 2 15.99539
chimesFF: 	0 2 3 8.84080
chimesFF: 	0 3 2 8.84080
chimesFF: 	0 2 4 1.73414
chimesFF: 	0 4 2 1.73414
chimesFF: 	0 2 5 0.07962
chimesFF: 	0 5 2 0.07962
chimesFF: 	0 2 7 0.21140
chimesFF: 	0 7 2 0.21140
chimesFF: 	0 3 3 2.96715
chimesFF: 	0 3 4 0.03803
chimesFF: 	0 4 3 0.03803
chimesFF: 	0 3 6 -0.05683
chimesFF: 	0 6 3 -0.05683
chimesFF: 	0 3 7 0.04031
chimesFF: 	0 7 3 0.04031
chimesFF: 	0 4 4 -0.00264
chimesFF: 	0 4 6 0.34357
chimesFF: 	0 6 4 0.34357
chimesFF: 	0 4 7 0.31468
chimesFF: 	0 7 4 0.31468
chimesFF: 	0 5 5 1.34670
chimesFF: 	0 5 7 -0.17473
chimesFF: 	0 7 5 -0.17473
chimesFF: 	0 6 6 -0.44364
chimesFF: 	0 6 7 -0.55226
chimesFF: 	0 7 6 -0.55226
chimesFF: 	0 7 7 -0.71730
chimesFF: 	1 0 1 3.06798
chimesFF: 	1 1 0 3.06798
chimesFF: 	1 0 2 5.04461
chimesFF: 	1 2 0 5.04461
chimesFF: 	1 0 3 2.95049
chimesFF: 	1 3 0 2.95049
chimesFF: 	1 0 5 -2.75534
chimesFF: 	1 5 0 -2.75534
chimesFF: 	1 0 6 -0.69931
chimesFF: 	1 6 0 -0.69931
chimesFF: 	1 0 7 0.22908
chimesFF: 	1 7 0 0.22908
chimesFF: 	1 1 1 4.20638
chimesFF: 	1 1 5 -0.27690
chimesFF: 	1 5 1 -0.27690
chimesFF: 	1 1 7 0.23241
chimesFF: 	1 7 1 0.23241
chimesFF: 	1 2 6 0.28119
chimesFF: 	1 6 2 0.28119
chimesFF: 	1 3 3 -2.20364
chimesFF: 	1 3 5 0.50214
chimesFF: 	1 5 3 0.50214
chimesFF: 	1 4 5 -0.82774
chimesFF: 	1 5 4 -0.82774
chimesFF: 	1 4 7 0.34320
chimesFF: 	1 7 4 0.34320
chimesFF: 	1 5 7 0.07364
chimesFF: 	1 7 5 0.07364
chimesFF: 	1 6 7 -0.37223
chimesFF: 	1 7 6 -0.37223
chimesFF: 	1 7 7 -0.91746
chimesFF: 	2 0 2 4.97440
chimesFF: 	2 2 0 4.97440
chimesFF: 	2 0 5 0.06645
chimesFF: 	2 5 0 0.06645
chimesFF: 	2 0 6 0.57452
chimesFF: 	2 6 0 0.57452
chimesFF: 	2 0 7 0.00480
chimesFF: 	2 7 0 0.00480
chimesFF: 	2 1 2 3.98026
chimesFF: 	2 2 1 3.98026
chimesFF: 	2 1 6 0.59264
chimesFF: 	2 6 1 0.59264
chimesFF: 	2 2 3 3.82667
chimesFF: 	2 3 2 3.82667
chimesFF: 	2 2 4 -0.07903
chimesFF: 	2 4 2 -0.07903
chimesFF: 	2 2 5 -3.38387
chimesFF: 	2 5 2 -3.38387
chimesFF: 	2 2 6 -0.28065
chimesFF: 	2 6 2 -0.28065
chimesFF: 	2 2 7 -0.16092
chimesFF: 	2 7 2 -0.16092
chimesFF: 	2 3 3 5.61230
chimesFF: 	2 3 5 -2.60612
chimesFF: 	2 5 3 -2.60612
chimesFF: 	2 3 6 -0.33543
chimesFF: 	2 6 3 -0.33543
chimesFF: 	2 3 7 0.91348
chimesFF: 	2 7 3 0.91348
chimesFF: 	2 4 4 -0.77147
chimesFF: 	2 4 5 0.19466
chimesFF: 	2 5 4 0.19466
chimesFF: 	2 4 6 0.27074
chimesFF: 	2 6 4 0.27074
chimesFF: 	2 5 7 -0.15420
chimesFF: 	2 7 5 -0.15420
chimesFF: 	3 0 2 10.37172
chimesFF: 	3 2 0 10.37172
chimesFF: 	3 0 3 6.10630
chimesFF: 	3 3 0 6.10630
chimesFF: 	3 0 4 0.47729
chimesFF: 	3 4 0 0.47729
chimesFF: 	3 0 5 -0.43485
chimesFF: 	3 5 0 -0.43485
chimesFF: 	3 1 1 -2.39095
chimesFF: 	3 1 2 7.00336
chimesFF: 	3 2 1 7.00336
chimesFF: 	3 1 3 2.49139
chimesFF: 	3 3 1 2.49139
chimesFF: 	3 1 7 -0.14519
chimesFF: 	3 7 1 -0.14519
chimesFF: 	3 2 4 3.73024
chimesFF: 	3 4 2 3.73024
chimesFF: 	3 2 5 0.66403
chimesFF: 	3 5 2 0.66403
chimesFF: 	3 2 6 1.42564
chimesFF: 	3 6 2 1.42564
chimesFF: 	3 3 4 2.68027
chimesFF: 	3 4 3 2.68027
chimesFF: 	3 3 7 0.07717
chimesFF: 	3 7 3 0.07717
chimesFF: 	3 4 4 0.77199
chimesFF: 	3 4 6 -0.51946
chimesFF: 	3 6 4 -0.51946
chimesFF: 	3 4 7 -0.68156
chimesFF: 	3 7 4 -0.68156
chimesFF: 	3 5 5 -0.03995
chimesFF: 	3 5 6 -0.09116
chimesFF: 	3 6 5 -0.09116
chimesFF: 	3 6 6 0.38202
chimesFF: 	3 6 7 0.44632
chimesFF: 	3 7 6 0.44632
chimesFF: 	3 7 7 0.28550
chimesFF: 	4 0 1 -0.34971
chimesFF: 	4 1 0 -0.34971
chimesFF: 	4 0 2 -0.96109
chimesFF: 	4 2 0 -0.96109
chimesFF: 	4 0 5 1.46030
chimesFF: 	4 5 0 1.46030
chimesFF: 	4 1 3 0.29215
chimesFF: 	4 3 1 0.29215
chimesFF: 	4 1 5 2.24281
chimesFF: 	4 5 1 2.24281
chimesFF: 	4 2 2 4.68956
chimesFF: 	4 2 3 4.33072
chimesFF: 	4 3 2 4.33072
chimesFF: 	4 2 5 -0.75081
chimesFF: 	4 5 2 -0.75081
chimesFF: 	4 2 6 -0.45111
chimesFF: 	4 6 2 -0.45111
chimesFF: 	4 3 4 -1.29999
chimesFF: 	4 4 3 -1.29999
chimesFF: 	4 3 5 -0.57410
chimesFF: 	4 5 3 -0.57410
chimesFF: 	4 4 4 -0.94451
chimesFF: 	4 4 5 1.16104
chimesFF: 	4 5 4 1.16104
chimesFF: 	4 4 7 -0.42441
chimesFF: 	4 7 4 -0.42441
chimesFF: 	4 5 5 2.30996
chimesFF: 	4 5 6 0.39935
chimesFF: 	4 6 5 0.39935
chimesFF: 	4 6 7 0.40501
chimesFF: 	4 7 6 0.40501
chimesFF: 	4 7 7 0.40619
chimesFF: 	5 0 1 0.64298
chimesFF: 	5 1 0 0.64298
chimesFF: 	5 0 3 -0.84536
chimesFF: 	5 3 0 -0.84536
chimesFF: 	5 0 4 -1.24305
chimesFF: 	5 4 0 -1.24305
chimesFF: 	5 0 5 -0.25113
chimesFF: 	5 5 0 -0.25113
chimesFF: 	5 0 6 0.20032
chimesFF: 	5 6 0 0.20032
chimesFF: 	5 1 1 2.18347
chimesFF: 	5 1 3 -1.49698
chimesFF: 	5 3 1 -1.49698
chimesFF: 	5 1 4 -1.62240
chimesFF: 	5 4 1 -1.62240
chimesFF: 	5 1 5 -0.00916
chimesFF: 	5 5 1 -0.00916
chimesFF: 	5 1 6 0.58898
chimesFF: 	5 6 1 0.58898
chimesFF: 	5 1 7 -0.00834
chimesFF: 	5 7 1 -0.00834
chimesFF: 	5 2 2 -2.12929
chimesFF: 	5 3 4 0.23386
chimesFF: 	5 4 3 0.23386
chimesFF: 	5 3 5 0.00136
chimesFF: 	5 5 3 0.00136
chimesFF: 	5 3 6 0.13873
chimesFF: 	5 6 3 0.13873
chimesFF: 	5 3 7 0.00556
chimesFF: 	5 7 3 0.00556
chimesFF: 	5 5 6 -0.01798
chimesFF: 	5 6 5 -0.01798
chimesFF: 	5 5 7 -0.01008
chimesFF: 	5 7 5 -0.01008
chimesFF: 	5 6 7 0.16658
chimesFF: 	5 7 6 0.16658
chimesFF: 	6 0 1 -0.41552
chimesFF: 	6 1 0 -0.41552
chimesFF: 	6 0 2 0.48253
chimesFF: 	6 2 0 0.48253
chimesFF: 	6 0 4 0.46680
chimesFF: 	6 4 0 0.46680
chimesFF: 	6 0 5 0.11660
chimesFF: 	6 5 0 0.11660
chimesFF: 	6 1 2 2.09863
chimesFF: 	6 2 1 2.09863
chimesFF: 	6 1 3 0.70844
chimesFF: 	6 3 1 0.70844
chimesFF: 	6 1 4 0.24085
chimesFF: 	6 4 1 0.24085
chimesFF: 	6 1 7 0.06298
chimesFF: 	6 7 1 0.06298
chimesFF: 	6 2 2 1.19544
chimesFF: 	6 2 3 1.19367
chimesFF: 	6 3 2 1.19367
chimesFF: 	6 2 4 -0.24347
chimesFF: 	6 4 2 -0.24347
chimesFF: 	6 2 5 -0.52952
chimesFF: 	6 5 2 -0.52952
chimesFF: 	6 2 6 -0.84702
chimesFF: 	6 6 2 -0.84702
chimesFF: 	6 2 7 0.07450
chimesFF: 	6 7 2 0.07450
chimesFF: 	6 3 4 -1.20971
chimesFF: 	6 4 3 -1.20971
chimesFF: 	6 3 5 -0.67655
chimesFF: 	6 5 3 -0.67655
chimesFF: 	6 3 6 -0.55351
chimesFF: 	6 6 3 -0.55351
chimesFF: 	6 4 5 0.42699
chimesFF: 	6 5 4 0.42699
chimesFF: 	6 4 6 0.02827
chimesFF: 	6 6 4 0.02827
chimesFF: 	6 4 7 0.02284
chimesFF: 	6 7 4 0.02284
chimesFF: 	6 5 5 0.55346
chimesFF: 	6 5 7 -0.01850
chimesFF: 	6 7 5 -0.01850
chimesFF: 	6 6 6 -0.39027
chimesFF: 	6 6 7 -0.19147
chimesFF: 	6 7 6 -0.19147
chimesFF: 	6 7 7 -0.28193
chimesFF: 	7 0 1 0.11191
chimesFF: 	7 1 0 0.11191
chimesFF: 	7 0 3 -0.17702
chimesFF: 	7 3 0 -0.17702
chimesFF: 	7 0 6 0.24079
chimesFF: 	7 6 0 0.24079
chimesFF: 	7 0 7 0.04709
chimesFF: 	7 7 0 0.04709
chimesFF: 	7 1 2 -0.29098
chimesFF: 	7 2 1 -0.29098
chimesFF: 	7 1 3 -0.32092
chimesFF: 	7 3 1 -0.32092
chimesFF: 	7 1 4 -0.18163
chimesFF: 	7 4 1 -0.18163
chimesFF: 	7 1 5 0.33481
chimesFF: 	7 5 1 0.33481
chimesFF: 	7 1 6 0.63040
chimesFF: 	7 6 1 0.63040
chimesFF: 	7 2 2 -2.34322
chimesFF: 	7 2 4 0.02425
chimesFF: 	7 4 2 0.02425
chimesFF: 	7 2 5 0.42691
chimesFF: 	7 5 2 0.42691
chimesFF: 	7 2 7 -0.00535
chimesFF: 	7 7 2 -0.00535
chimesFF: 	7 3 3 1.09033
chimesFF: 	7 3 5 0.02799
chimesFF: 	7 5 3 0.02799
chimesFF: 	7 3 7 -0.10317
chimesFF: 	7 7 3 -0.10317
chimesFF: 	7 4 4 -0.39731
chimesFF: 	7 4 5 -0.52595
chimesFF: 	7 5 4 -0.52595
chimesFF: 	7 4 6 -0.09056
chimesFF: 	7 6 4 -0.09056
chimesFF: 	7 4 7 -0.14392
chimesFF: 	7 7 4 -0.14392
chimesFF: 	7 5 5 -0.12800
chimesFF: 	7 5 6 0.05533
chimesFF: 	7 6 5 0.05533
chimesFF: 	7 5 7 -0.05817
chimesFF: 	7 7 5 -0.05817
chimesFF: 	7 6 6 -0.17258
chimesFF: 	7 6 7 -0.18764
chimesFF: 	7 7 6 -0.18764
chimesFF: 	7 7 7 -0.33453
chimesFF: Read 3B parameters for triplet: 3 H H H
chimesFF: 	0 1 1 1.14774
chimesFF: 	1 0 1 1.14774
chimesFF: 	1 1 0 1.14774
chimesFF: 	0 1 2 0.63755
chimesFF: 	1 0 2 0.63755
chimesFF: 	0 2 1 0.63755
chimesFF: 	2 0 1 0.63755
chimesFF: 	1 2 0 0.63755
chimesFF: 	2 1 0 0.63755
chimesFF: 	0 1 6 0.25551
chimesFF: 	1 0 6 0.25551
chimesFF: 	0 6 1 0.25551
chimesFF: 	6 0 1 0.25551
chimesFF: 	1 6 0 0.25551
chimesFF: 	6 1 0 0.25551
chimesFF: 	0 1 7 0.09747
chimesFF: 	1 0 7 0.09747
chimesFF: 	0 7 1 0.09747
chimesFF: 	7 0 1 0.09747
chimesFF: 	1 7 0 0.09747
chimesFF: 	7 1 0 0.09747
chimesFF: 	0 2 2 6.43419
chimesFF: 	2 0 2 6.43419
chimesFF: 	2 2 0 6.43419
chimesFF: 	0 2 3 5.27787
chimesFF: 	2 0 3 5.27787
chimesFF: 	0 3 2 5.27787
chimesFF: 	3 0 2 5.27787
chimesFF: 	2 3 0 5.27787
chimesFF: 	3 2 0 5.27787
chimesFF: 	0 2 4 1.84569
chimesFF: 	2 0 4 1.84569
chimesFF: 	0 4 2 1.84569
chimesFF: 	4 0 2 1.84569
chimesFF: 	2 4 0 1.84569
chimesFF: 	4 2 0 1.84569
chimesFF: 	0 2 5 -0.46966
chimesFF: 	2 0 5 -0.46966
chimesFF: 	0 5 2 -0.46966
chimesFF: 	5 0 2 -0.46966
chimesFF: 	2 5 0 -0.46966
chimesFF: 	5 2 0 -0.46966
chimesFF: 	0 2 6 0.49153
chimesFF: 	2 0 6 0.49153
chimesFF: 	0 6 2 0.49153
chimesFF: 	6 0 2 0.49153
chimesFF: 	2 6 0 0.49153
chimesFF: 	6 2 0 0.49153
chimesFF: 	0 2 7 -0.01433
chimesFF: 	2 0 7 -0.01433
chimesFF: 	0 7 2 -0.01433
chimesFF: 	7 0 2 -0.01433
chimesFF: 	2 7 0 -0.01433
chimesFF: 	7 2 0 -0.01433
chimesFF: 	0 3 4 0.21230
chimesFF: 	3 0 4 0.21230
chimesFF: 	0 4 3 0.21230
chimesFF: 	4 0 3 0.21230
chimesFF: 	3 4 0 0.21230
chimesFF: 	4 3 0 0.21230
chimesFF: 	0 3 7 -0.04733
chimesFF: 	3 0 7 -0.04733
chimesFF: 	0 7 3 -0.04733
chimesFF: 	7 0 3 -0.04733
chimesFF: 	3 7 0 -0.04733
chimesFF: 	7 3 0 -0.04733
chimesFF: 	0 4 5 -0.17275
chimesFF: 	4 0 5 -0.17275
chimesFF: 	0 5 4 -0.17275
chimesFF: 	5 0 4 -0.17275
chimesFF: 	4 5 0 -0.17275
chimesFF: 	5 4 0 -0.17275
chimesFF: 	0 5 6 -0.05510
chimesFF: 	5 0 6 -0.05510
chimesFF: 	0 6 5 -0.05510
chimesFF: 	6 0 5 -0.05510
chimesFF: 	5 6 0 -0.05510
chimesFF: 	6 5 0 -0.05510
chimesFF: 	0 6 7 0.03290
chimesFF: 	6 0 7 0.03290
chimesFF: 	0 7 6 0.03290
chimesFF: 	7 0 6 0.03290
chimesFF: 	6 7 0 0.03290
chimesFF: 	7 6 0 0.03290
chimesFF: 	1 1 2 -5.17073
chimesFF: 	1 2 1 -5.17073
chimesFF: 	2 1 1 -5.17073
chimesFF: 	1 1 3 -5.43937
chimesFF: 	1 3 1 -5.43937
chimesFF: 	3 1 1 -5.43937
chimesFF: 	1 1 5 0.50164
chimesFF: 	1 5 1 0.50164
chimesFF: 	5 1 1 0.50164
chimesFF: 	1 2 3 1.45497
chimesFF: 	2 1 3 1.45497
chimesFF: 	1 3 2 1.45497
chimesFF: 	3 1 2 1.45497
chimesFF: 	2 3 1 1.45497
chimesFF: 	3 2 1 1.45497
chimesFF: 	1 2 4 1.12994
chimesFF: 	2 1 4 1.12994
chimesFF: 	1 4 2 1.12994
chimesFF: 	4 1 2 1.12994
chimesFF: 	2 4 1 1.12994
chimesFF: 	4 2 1 1.12994
chimesFF: 	1 2 7 -0.05980
chimesFF: 	2 1 7 -0.05980
chimesFF: 	1 7 2 -0.05980
chimesFF: 	7 1 2 -0.05980
chimesFF: 	2 7 1 -0.05980
chimesFF: 	7 2 1 -0.05980
chimesFF: 	1 3 6 -0.30251
chimesFF: 	3 1 6 -0.30251
chimesFF: 	1 6 3 -0.30251
chimesFF: 	6 1 3 -0.30251
chimesFF: 	3 6 1 -0.30251
chimesFF: 	6 3 1 -0.30251
chimesFF: 	1 3 7 -0.09854
chimesFF: 	3 1 7 -0.09854
chimesFF: 	1 7 3 -0.09854
chimesFF: 	7 1 3 -0.09854
chimesFF: 	3 7 1 -0.09854
chimesFF: 	7 3 1 -0.09854
chimesFF: 	1 4 5 0.00647
chimesFF: 	4 1 5 0.00647
chimesFF: 	1 5 4 0.00647
chimesFF: 	5 1 4 0.00647
chimesFF: 	4 5 1 0.00647
chimesFF: 	5 4 1 0.00647
chimesFF: 	1 4 7 0.23818
chimesFF: 	4 1 7 0.23818
chimesFF: 	1 7 4 0.23818
chimesFF: 	7 1 4 0.23818
chimesFF: 	4 7 1 0.23818
chimesFF: 	7 4 1 0.23818
chimesFF: 	1 5 7 0.05196
chimesFF: 	5 1 7 0.05196
chimesFF: 	1 7 5 0.05196
chimesFF: 	7 1 5 0.05196
chimesFF: 	5 7 1 0.05196
chimesFF: 	7 5 1 0.05196
chimesFF: 	1 7 7 -0.03957
chimesFF: 	7 1 7 -0.03957
chimesFF: 	7 7 1 -0.03957
chimesFF: 	2 2 4 -1.00054
chimesFF: 	2 4 2 -1.00054
chimesFF: 	4 2 2 -1.00054
chimesFF: 	2 2 5 0.54974
chimesFF: 	2 5 2 0.54974
chimesFF: 	5 2 2 0.54974
chimesFF: 	2 2 6 -0.12559
chimesFF: 	2 6 2 -0.12559
chimesFF: 	6 2 2 -0.12559
chimesFF: 	2 3 3 1.45858
chimesFF: 	3 2 3 1.45858
chimesFF: 	3 3 2 1.45858
chimesFF: 	2 3 5 -0.04410
chimesFF: 	3 2 5 -0.04410
chimesFF: 	2 5 3 -0.04410
chimesFF: 	5 2 3 -0.04410
chimesFF: 	3 5 2 -0.04410
chimesFF: 	5 3 2 -0.04410
chimesFF: 	2 4 7 -0.08749
chimesFF: 	4 2 7 -0.08749
chimesFF: 	2 7 4 -0.08749
chimesFF: 	7 2 4 -0.08749
chimesFF: 	4 7 2 -0.08749
chimesFF: 	7 4 2 -0.08749
chimesFF: 	2 5 7 -0.12050
chimesFF: 	5 2 7 -0.12050
chimesFF: 	2 7 5 -0.12050
chimesFF: 	7 2 5 -0.12050
chimesFF: 	5 7 2 -0.12050
chimesFF: 	7 5 2 -0.12050
chimesFF: 	2 6 7 -0.03982
chimesFF: 	6 2 7 -0.03982
chimesFF: 	2 7 6 -0.03982
chimesFF: 	7 2 6 -0.03982
chimesFF: 	6 7 2 -0.03982
chimesFF: 	7 6 2 -0.03982
chimesFF: 	2 7 7 0.03199
chimesFF: 	7 2 7 0.03199
chimesFF: 	7 7 2 0.03199
chimesFF: 	3 3 6 0.03096
chimesFF: 	3 6 3 0.03096
chimesFF: 	6 3 3 0.03096
chimesFF: 	3 3 7 0.46829
chimesFF: 	3 7 3 0.46829
chimesFF: 	7 3 3 0.46829
chimesFF: 	3 4 5 -0.06421
chimesFF: 	4 3 5 -0.06421
chimesFF: 	3 5 4 -0.06421
chimesFF: 	5 3 4 -0.06421
chimesFF: 	4 5 3 -0.06421
chimesFF: 	5 4 3 -0.06421
chimesFF: 	3 4 6 -0.33361
chimesFF: 	4 3 6 -0.33361
chimesFF: 	3 6 4 -0.33361
chimesFF: 	6 3 4 -0.33361
chimesFF: 	4 6 3 -0.33361
chimesFF: 	6 4 3 -0.33361
chimesFF: 	3 4 7 -0.10683
chimesFF: 	4 3 7 -0.10683
chimesFF: 	3 7 4 -0.10683
chimesFF: 	7 3 4 -0.10683
chimesFF: 	4 7 3 -0.10683
chimesFF: 	7 4 3 -0.10683
chimesFF: 	3 5 6 -0.08890
chimesFF: 	5 3 6 -0.08890
chimesFF: 	3 6 5 -0.08890
chimesFF: 	6 3 5 -0.08890
chimesFF: 	5 6 3 -0.08890
chimesFF: 	6 5 3 -0.08890
chimesFF: 	3 6 6 0.05268
chimesFF: 	6 3 6 0.05268
chimesFF: 	6 6 3 0.05268
chimesFF: 	4 4 4 -0.36902
chimesFF: 	4 5 6 0.00381
chimesFF: 	5 4 6 0.00381
chimesFF: 	4 6 5 0.00381
chimesFF: 	6 4 5 0.00381
chimesFF: 	5 6 4 0.00381
chimesFF: 	6 5 4 0.00381
chimesFF: 	4 5 7 0.10579
chimesFF: 	5 4 7 0.10579
chimesFF: 	4 7 5 0.10579
chimesFF: 	7 4 5 0.10579
chimesFF: 	5 7 4 0.10579
chimesFF: 	7 5 4 0.10579
chimesFF: 	4 6 7 -0.03437
chimesFF: 	6 4 7 -0.03437
chimesFF: 	4 7 6 -0.03437
chimesFF: 	7 4 6 -0.03437
chimesFF: 	6 7 4 -0.03437
chimesFF: 	7 6 4 -0.03437
chimesFF: 	4 7 7 -0.14642
chimesFF: 	7 4 7 -0.14642
chimesFF: 	7 7 4 -0.14642
chimesFF: 	5 5 7 0.13522
chimesFF: 	5 7 5 0.13522
chimesFF: 	7 5 5 0.13522
chimesFF: 	5 6 6 -0.19108
chimesFF: 	6 5 6 -0.19108
chimesFF: 	6 6 5 -0.19108
chimesFF: 	5 6 7 -0.00623
chimesFF: 	6 5 7 -0.00623
chimesFF: 	5 7 6 -0.00623
chimesFF: 	7 5 6 -0.00623
chimesFF: 	6 7 5 -0.00623
chimesFF: 	7 6 5 -0.00623
chimesFF: 	5 7 7 -0.14954
chimesFF: 	7 5 7 -0.14954
chimesFF: 	7 7 5 -0.14954
chimesFF: 	6 6 7 0.01786
chimesFF: 	6 7 6 0.01786
chimesFF: 	7 6 6 0.01786
chimesFF: 	6 7 7 -0.19675
chimesFF: 	7 6 7 -0.19675
chimesFF: 	7 7 6 -0.19675
chimesFF: 	7 7 7 -0.33651
chimesFF: Built the following 3-body pair "slow" map:
chimesFF: 	3 HHHHHH
chimesFF: 	2 HHNHNH
chimesFF: 	2 NHHHNH
chimesFF: 	2 NHNHHH
chimesFF: 	1 NHNHNN
chimesFF: 	1 NHNNNH
chimesFF: 	1 NNNHNH
chimesFF: 	0 NNNNNN
chimesFF: Built the following 3-body pair "fast" map:
chimesFF: 	0 0
chimesFF: 	1 1
chimesFF: 	2 1
chimesFF: 	3 2
chimesFF: 	4 1
chimesFF: 	5 2
chimesFF: 	6 2
chimesFF: 	7 3
chimesFF: Set the following special 3-body outer cutoffs: 
chimesFF: 	0 5.00000 5.00000 5.00000
chimesFF: 	1 5.00000 5.00000 5.00000
chimesFF: 	2 5.00000 5.00000 5.00000
chimesFF: 	3 5.00000 5.00000 5.00000
chimesFF: Read 4B parameters for quadruplets: 0 N N N N
chimesFF: 	0 0 1 0 1 2 7.17194
chimesFF: 	0 1 0 1 0 2 7.17194
chimesFF: 	0 0 1 0 2 1 7.17194
chimesFF: 	0 1 0 2 0 1 7.17194
chimesFF: 	1 0 0 1 2 0 7.17194
chimesFF: 	1 0 0 2 1 0 7.17194
chimesFF: 	0 0 2 0 1 1 7.17194
chimesFF: 	0 2 0 1 0 1 7.17194
chimesFF: 	2 0 0 1 1 0 7.17194
chimesFF: 	1 1 2 0 0 0 7.17194
chimesFF: 	1 2 1 0 0 0 7.17194
chimesFF: 	2 1 1 0 0 0 7.17194
chimesFF: 	0 0 1 0 1 3 14.45552
chimesFF: 	0 1 0 1 0 3 14.45552
chimesFF: 	0 0 1 0 3 1 14.45552
chimesFF: 	0 1 0 3 0 1 14.45552
chimesFF: 	1 0 0 1 3 0 14.45552
chimesFF: 	1 0 0 3 1 0 14.45552
chimesFF: 	0 0 3 0 1 1 14.45552
chimesFF: 	0 3 0 1 0 1 14.45552
chimesFF: 	3 0 0 1 1 0 14.45552
chimesFF: 	1 1 3 0 0 0 14.45552
chimesFF: 	1 3 1 0 0 0 14.45552
chimesFF: 	3 1 1 0 0 0 14.45552
chimesFF: 	0 0 1 0 2 2 2.63747
chimesFF: 	0 1 0 2 0 2 2.63747
chimesFF: 	1 0 0 2 2 0 2.63747
chimesFF: 	0 0 2 0 1 2 2.63747
chimesFF: 	0 2 0 1 0 2 2.63747
chimesFF: 	0 0 2 0 2 1 2.63747
chimesFF: 	0 2 0 2 0 1 2.63747
chimesFF: 	2 0 0 1 2 0 2.63747
chimesFF: 	2 0 0 2 1 0 2.63747
chimesFF: 	1 2 2 0 0 0 2.63747
chimesFF: 	2 1 2 0 0 0 2.63747
chimesFF: 	2 2 1 0 0 0 2.63747
chimesFF: 	0 0 1 1 0 2 0.90283
chimesFF: 	0 1 0 0 1 2 0.90283
chimesFF: 	0 0 1 1 2 0 0.90283
chimesFF: 	0 1 0 2 1 0 0.90283
chimesFF: 	1 0 0 0 2 1 0.90283
chimesFF: 	1 0 0 2 0 1 0.90283
chimesFF: 	0 1 2 0 1 0 0.90283
chimesFF: 	0 2 1 1 0 0 0.90283
chimesFF: 	1 0 2 0 0 1 0.90283
chimesFF: 	1 2 0 0 0 1 0.90283
chimesFF: 	2 0 1 1 0 0 0.90283
chimesFF: 	2 1 0 0 1 0 0.90283
chimesFF: 	0 0 1 1 0 3 -7.98199
chimesFF: 	0 1 0 0 1 3 -7.98199
chimesFF: 	0 0 1 1 3 0 -7.98199
chimesFF: 	0 1 0 3 1 0 -7.98199
chimesFF: 	1 0 0 0 3 1 -7.98199
chimesFF: 	1 0 0 3 0 1 -7.98199
chimesFF: 	0 1 3 0 1 0 -7.98199
chimesFF: 	0 3 1 1 0 0 -7.98199
chimesFF: 	1 0 3 0 0 1 -7.98199
chimesFF: 	1 3 0 0 0 1 -7.98199
chimesFF: 	3 0 1 1 0 0 -7.98199
chimesFF: 	3 1 0 0 1 0 -7.98199
chimesFF: 	0 0 1 1 1 1 -2.93894
chimesFF: 	0 1 0 1 1 1 -2.93894
chimesFF: 	1 0 0 1 1 1 -2.93894
chimesFF: 	0 1 1 0 1 1 -2.93894
chimesFF: 	0 1 1 1 0 1 -2.93894
chimesFF: 	1 0 1 0 1 1 -2.93894
chimesFF: 	1 1 0 1 0 1 -2.93894
chimesFF: 	1 0 1 1 1 0 -2.93894
chimesFF: 	1 1 0 1 1 0 -2.93894
chimesFF: 	1 1 1 0 0 1 -2.93894
chimesFF: 	1 1 1 0 1 0 -2.93894
chimesFF: 	1 1 1 1 0 0 -2.93894
chimesFF: 	0 0 1 1 1 3 4.90977
chimesFF: 	0 1 0 1 1 3 4.90977
chimesFF: 	0 0 1 1 3 1 4.90977
chimesFF: 	0 1 0 3 1 1 4.90977
chimesFF: 	1 0 0 1 3 1 4.90977
chimesFF: 	1 0 0 3 1 1 4.90977
chimesFF: 	0 1 1 0 1 3 4.90977
chimesFF: 	0 1 1 1 0 3 4.90977
chimesFF: 	1 0 1 0 3 1 4.90977
chimesFF: 	1 1 0 3 0 1 4.90977
chimesFF: 	1 0 1 1 3 0 4.90977
chimesFF: 	1 1 0 3 1 0 4.90977
chimesFF: 	0 1 3 0 1 1 4.90977
chimesFF: 	0 3 1 1 0 1 4.90977
chimesFF: 	1 0 3 0 1 1 4.90977
chimesFF: 	1 3 0 1 0 1 4.90977
chimesFF: 	3 0 1 1 1 0 4.90977
chimesFF: 	3 1 0 1 1 0 4.90977
chimesFF: 	1 1 3 0 0 1 4.90977
chimesFF: 	1 3 1 0 0 1 4.90977
chimesFF: 	1 1 3 0 1 0 4.90977
chimesFF: 	1 3 1 1 0 0 4.90977
chimesFF: 	3 1 1 0 1 0 4.90977
chimesFF: 	3 1 1 1 0 0 4.90977
chimesFF: 	0 0 1 1 2 3 6.14175
chimesFF: 	0 1 0 2 1 3 6.14175
chimesFF: 	0 0 1 1 3 2 6.14175
chimesFF: 	0 1 0 3 1 2 6.14175
chimesFF: 	1 0 0 2 3 1 6.14175
chimesFF: 	1 0 0 3 2 1 6.14175
chimesFF: 	0 1 2 0 1 3 6.14175
chimesFF: 	0 2 1 1 0 3 6.14175
chimesFF: 	1 0 2 0 3 1 6.14175
chimesFF: 	1 2 0 3 0 1 6.14175
chimesFF: 	2 0 1 1 3 0 6.14175
chimesFF: 	2 1 0 3 1 0 6.14175
chimesFF: 	0 1 3 0 1 2 6.14175
chimesFF: 	0 3 1 1 0 2 6.14175
chimesFF: 	1 0 3 0 2 1 6.14175
chimesFF: 	1 3 0 2 0 1 6.14175
chimesFF: 	3 0 1 1 2 0 6.14175
chimesFF: 	3 1 0 2 1 0 6.14175
chimesFF: 	1 2 3 0 0 1 6.14175
chimesFF: 	1 3 2 0 0 1 6.14175
chimesFF: 	2 1 3 0 1 0 6.14175
chimesFF: 	2 3 1 1 0 0 6.14175
chimesFF: 	3 1 2 0 1 0 6.14175
chimesFF: 	3 2 1 1 0 0 6.14175
chimesFF: 	0 0 1 2 0 1 0.84264
chimesFF: 	0 1 0 0 2 1 0.84264
chimesFF: 	0 0 1 2 1 0 0.84264
chimesFF: 	0 1 0 1 2 0 0.84264
chimesFF: 	1 0 0 0 1 2 0.84264
chimesFF: 	1 0 0 1 0 2 0.84264
chimesFF: 	0 2 0 0 1 1 0.84264
chimesFF: 	0 0 2 1 0 1 0.84264
chimesFF: 	2 0 0 0 1 1 0.84264
chimesFF: 	2 0 0 1 0 1 0.84264
chimesFF: 	0 0 2 1 1 0 0.84264
chimesFF: 	0 2 0 1 1 0 0.84264
chimesFF: 	0 2 1 0 1 0 0.84264
chimesFF: 	0 1 2 1 0 0 0.84264
chimesFF: 	2 0 1 0 0 1 0.84264
chimesFF: 	2 1 0 0 0 1 0.84264
chimesFF: 	1 0 2 1 0 0 0.84264
chimesFF: 	1 2 0 0 1 0 0.84264
chimesFF: 	1 0 1 0 0 2 0.84264
chimesFF: 	1 1 0 0 0 2 0.84264
chimesFF: 	0 1 1 0 2 0 0.84264
chimesFF: 	0 1 1 2 0 0 0.84264
chimesFF: 	1 1 0 0 2 0 0.84264
chimesFF: 	1 0 1 2 0 0 0.84264
chimesFF: 	0 0 1 2 0 2 0.04996
chimesFF: 	0 1 0 0 2 2 0.04996
chimesFF: 	0 0 1 2 2 0 0.04996
chimesFF: 	0 1 0 2 2 0 0.04996
chimesFF: 	1 0 0 0 2 2 0.04996
chimesFF: 	1 0 0 2 0 2 0.04996
chimesFF: 	0 2 0 0 1 2 0.04996
chimesFF: 	0 0 2 1 0 2 0.04996
chimesFF: 	2 0 0 0 2 1 0.04996
chimesFF: 	2 0 0 2 0 1 0.04996
chimesFF: 	0 0 2 1 2 0 0.04996
chimesFF: 	0 2 0 2 1 0 0.04996
chimesFF: 	0 2 2 0 1 0 0.04996
chimesFF: 	0 2 2 1 0 0 0.04996
chimesFF: 	2 0 2 0 0 1 0.04996
chimesFF: 	2 2 0 0 0 1 0.04996
chimesFF: 	2 0 2 1 0 0 0.04996
chimesFF: 	2 2 0 0 1 0 0.04996
chimesFF: 	1 0 2 0 0 2 0.04996
chimesFF: 	1 2 0 0 0 2 0.04996
chimesFF: 	0 1 2 0 2 0 0.04996
chimesFF: 	0 2 1 2 0 0 0.04996
chimesFF: 	2 1 0 0 2 0 0.04996
chimesFF: 	2 0 1 2 0 0 0.04996
chimesFF: 	0 0 1 2 1 2 0.01515
chimesFF: 	0 1 0 1 2 2 0.01515
chimesFF: 	0 0 1 2 2 1 0.01515
chimesFF: 	0 1 0 2 2 1 0.01515
chimesFF: 	1 0 0 1 2 2 0.01515
chimesFF: 	1 0 0 2 1 2 0.01515
chimesFF: 	0 2 1 0 1 2 0.01515
chimesFF: 	0 1 2 1 0 2 0.01515
chimesFF: 	2 0 1 0 2 1 0.01515
chimesFF: 	2 1 0 2 0 1 0.01515
chimesFF: 	1 0 2 1 2 0 0.01515
chimesFF: 	1 2 0 2 1 0 0.01515
chimesFF: 	0 2 2 0 1 1 0.01515
chimesFF: 	0 2 2 1 0 1 0.01515
chimesFF: 	2 0 2 0 1 1 0.01515
chimesFF: 	2 2 0 1 0 1 0.01515
chimesFF: 	2 0 2 1 1 0 0.01515
chimesFF: 	2 2 0 1 1 0 0.01515
chimesFF: 	1 1 2 0 0 2 0.01515
chimesFF: 	1 2 1 0 0 2 0.01515
chimesFF: 	1 1 2 0 2 0 0.01515
chimesFF: 	1 2 1 2 0 0 0.01515
chimesFF: 	2 1 1 0 2 0 0.01515
chimesFF: 	2 1 1 2 0 0 0.01515
chimesFF: 	0 0 1 2 2 3 -0.44067
chimesFF: 	0 1 0 2 2 3 -0.44067
chimesFF: 	0 0 1 2 3 2 -0.44067
chimesFF: 	0 1 0 3 2 2 -0.44067
chimesFF: 	1 0 0 2 3 2 -0.44067
chimesFF: 	1 0 0 3 2 2 -0.44067
chimesFF: 	0 2 2 0 1 3 -0.44067
chimesFF: 	0 2 2 1 0 3 -0.44067
chimesFF: 	2 0 2 0 3 1 -0.44067
chimesFF: 	2 2 0 3 0 1 -0.44067
chimesFF: 	2 0 2 1 3 0 -0.44067
chimesFF: 	2 2 0 3 1 0 -0.44067
chimesFF: 	0 2 3 0 1 2 -0.44067
chimesFF: 	0 3 2 1 0 2 -0.44067
chimesFF: 	2 0 3 0 2 1 -0.44067
chimesFF: 	2 3 0 2 0 1 -0.44067
chimesFF: 	3 0 2 1 2 0 -0.44067
chimesFF: 	3 2 0 2 1 0 -0.44067
chimesFF: 	1 2 3 0 0 2 -0.44067
chimesFF: 	1 3 2 0 0 2 -0.44067
chimesFF: 	2 1 3 0 2 0 -0.44067
chimesFF: 	2 3 1 2 0 0 -0.44067
chimesFF: 	3 1 2 0 2 0 -0.44067
chimesFF: 	3 2 1 2 0 0 -0.44067
chimesFF: 	0 0 1 2 3 3 -4.91470
chimesFF: 	0 1 0 3 2 3 -4.91470
chimesFF: 	1 0 0 3 3 2 -4.91470
chimesFF: 	0 2 3 0 1 3 -4.91470
chimesFF: 	0 3 2 1 0 3 -4.91470
chimesFF: 	2 0 3 0 3 1 -4.91470
chimesFF: 	2 3 0 3 0 1 -4.91470
chimesFF: 	3 0 2 1 3 0 -4.91470
chimesFF: 	3 2 0 3 1 0 -4.91470
chimesFF: 	1 3 3 0 0 2 -4.91470
chimesFF: 	3 1 3 0 2 0 -4.91470
chimesFF: 	3 3 1 2 0 0 -4.91470
chimesFF: 	0 0 1 3 0 0 -0.44315
chimesFF: 	0 1 0 0 3 0 -0.44315
chimesFF: 	1 0 0 0 0 3 -0.44315
chimesFF: 	0 3 0 0 1 0 -0.44315
chimesFF: 	0 0 3 1 0 0 -0.44315
chimesFF: 	3 0 0 0 0 1 -0.44315
chimesFF: 	0 0 1 3 0 2 9.92881
chimesFF: 	0 1 0 0 3 2 9.92881
chimesFF: 	0 0 1 3 2 0 9.92881
chimesFF: 	0 1 0 2 3 0 9.92881
chimesFF: 	1 0 0 0 2 3 9.92881
chimesFF: 	1 0 0 2 0 3 9.92881
chimesFF: 	0 3 0 0 1 2 9.92881
chimesFF: 	0 0 3 1 0 2 9.92881
chimesFF: 	3 0 0 0 2 1 9.92881
chimesFF: 	3 0 0 2 0 1 9.92881
chimesFF: 	0 0 3 1 2 0 9.92881
chimesFF: 	0 3 0 2 1 0 9.92881
chimesFF: 	0 3 2 0 1 0 9.92881
chimesFF: 	0 2 3 1 0 0 9.92881
chimesFF: 	3 0 2 0 0 1 9.92881
chimesFF: 	3 2 0 0 0 1 9.92881
chimesFF: 	2 0 3 1 0 0 9.92881
chimesFF: 	2 3 0 0 1 0 9.92881
chimesFF: 	1 0 2 0 0 3 9.92881
chimesFF: 	1 2 0 0 0 3 9.92881
chimesFF: 	0 1 2 0 3 0 9.92881
chimesFF: 	0 2 1 3 0 0 9.92881
chimesFF: 	2 1 0 0 3 0 9.92881
chimesFF: 	2 0 1 3 0 0 9.92881
chimesFF: 	0 0 1 3 0 3 2.00946
chimesFF: 	0 1 0 0 3 3 2.00946
chimesFF: 	0 0 1 3 3 0 2.00946
chimesFF: 	0 1 0 3 3 0 2.00946
chimesFF: 	1 0 0 0 3 3 2.00946
chimesFF: 	1 0 0 3 0 3 2.00946
chimesFF: 	0 3 0 0 1 3 2.00946
chimesFF: 	0 0 3 1 0 3 2.00946
chimesFF: 	3 0 0 0 3 1 2.00946
chimesFF: 	3 0 0 3 0 1 2.00946
chimesFF: 	0 0 3 1 3 0 2.00946
chimesFF: 	0 3 0 3 1 0 2.00946
chimesFF: 	0 3 3 0 1 0 2.00946
chimesFF: 	0 3 3 1 0 0 2.00946
chimesFF: 	3 0 3 0 0 1 2.00946
chimesFF: 	3 3 0 0 0 1 2.00946
chimesFF: 	3 0 3 1 0 0 2.00946
chimesFF: 	3 3 0 0 1 0 2.00946
chimesFF: 	1 0 3 0 0 3 2.00946
chimesFF: 	1 3 0 0 0 3 2.00946
chimesFF: 	0 1 3 0 3 0 2.00946
chimesFF: 	0 3 1 3 0 0 2.00946
chimesFF: 	3 1 0 0 3 0 2.00946
chimesFF: 	3 0 1 3 0 0 2.00946
chimesFF: 	0 0 1 3 1 1 8.79533
chimesFF: 	0 1 0 1 3 1 8.79533
chimesFF: 	1 0 0 1 1 3 8.79533
chimesFF: 	0 3 1 0 1 1 8.79533
chimesFF: 	0 1 3 1 0 1 8.79533
chimesFF: 	3 0 1 0 1 1 8.79533
chimesFF: 	3 1 0 1 0 1 8.79533
chimesFF: 	1 0 3 1 1 0 8.79533
chimesFF: 	1 3 0 1 1 0 8.79533
chimesFF: 	1 1 1 0 0 3 8.79533
chimesFF: 	1 1 1 0 3 0 8.79533
chimesFF: 	1 1 1 3 0 0 8.79533
chimesFF: 	0 0 1 3 1 3 -2.74767
chimesFF: 	0 1 0 1 3 3 -2.74767
chimesFF: 	0 0 1 3 3 1 -2.74767
chimesFF: 	0 1 0 3 3 1 -2.74767
chimesFF: 	1 0 0 1 3 3 -2.74767
chimesFF: 	1 0 0 3 1 3 -2.74767
chimesFF: 	0 3 1 0 1 3 -2.74767
chimesFF: 	0 1 3 1 0 3 -2.74767
chimesFF: 	3 0 1 0 3 1 -2.74767
chimesFF: 	3 1 0 3 0 1 -2.74767
chimesFF: 	1 0 3 1 3 0 -2.74767
chimesFF: 	1 3 0 3 1 0 -2.74767
chimesFF: 	0 3 3 0 1 1 -2.74767
chimesFF: 	0 3 3 1 0 1 -2.74767
chimesFF: 	3 0 3 0 1 1 -2.74767
chimesFF: 	3 3 0 1 0 1 -2.74767
chimesFF: 	3 0 3 1 1 0 -2.74767
chimesFF: 	3 3 0 1 1 0 -2.74767
chimesFF: 	1 1 3 0 0 3 -2.74767
chimesFF: 	1 3 1 0 0 3 -2.74767
chimesFF: 	1 1 3 0 3 0 -2.74767
chimesFF: 	1 3 1 3 0 0 -2.74767
chimesFF: 	3 1 1 0 3 0 -2.74767
chimesFF: 	3 1 1 3 0 0 -2.74767
chimesFF: 	0 0 2 1 1 3 -7.70025
chimesFF: 	0 2 0 1 1 3 -7.70025
chimesFF: 	0 0 2 1 3 1 -7.70025
chimesFF: 	0 2 0 3 1 1 -7.70025
chimesFF: 	2 0 0 1 3 1 -7.70025
chimesFF: 	2 0 0 3 1 1 -7.70025
chimesFF: 	0 1 1 0 2 3 -7.70025
chimesFF: 	0 1 1 2 0 3 -7.70025
chimesFF: 	1 0 1 0 3 2 -7.70025
chimesFF: 	1 1 0 3 0 2 -7.70025
chimesFF: 	1 0 1 2 3 0 -7.70025
chimesFF: 	1 1 0 3 2 0 -7.70025
chimesFF: 	0 1 3 0 2 1 -7.70025
chimesFF: 	0 3 1 2 0 1 -7.70025
chimesFF: 	1 0 3 0 1 2 -7.70025
chimesFF: 	1 3 0 1 0 2 -7.70025
chimesFF: 	3 0 1 2 1 0 -7.70025
chimesFF: 	3 1 0 1 2 0 -7.70025
chimesFF: 	2 1 3 0 0 1 -7.70025
chimesFF: 	2 3 1 0 0 1 -7.70025
chimesFF: 	1 2 3 0 1 0 -7.70025
chimesFF: 	1 3 2 1 0 0 -7.70025
chimesFF: 	3 2 1 0 1 0 -7.70025
chimesFF: 	3 1 2 1 0 0 -7.70025
chimesFF: 	0 0 2 1 2 2 7.53841
chimesFF: 	0 2 0 2 1 2 7.53841
chimesFF: 	2 0 0 2 2 1 7.53841
chimesFF: 	0 1 2 0 2 2 7.53841
chimesFF: 	0 2 1 2 0 2 7.53841
chimesFF: 	1 0 2 0 2 2 7.53841
chimesFF: 	1 2 0 2 0 2 7.53841
chimesFF: 	2 0 1 2 2 0 7.53841
chimesFF: 	2 1 0 2 2 0 7.53841
chimesFF: 	2 2 2 0 0 1 7.53841
chimesFF: 	2 2 2 0 1 0 7.53841
chimesFF: 	2 2 2 1 0 0 7.53841
chimesFF: 	0 0 2 1 2 3 2.22623
chimesFF: 	0 2 0 2 1 3 2.22623
chimesFF: 	0 0 2 1 3 2 2.22623
chimesFF: 	0 2 0 3 1 2 2.22623
chimesFF: 	2 0 0 2 3 1 2.22623
chimesFF: 	2 0 0 3 2 1 2.22623
chimesFF: 	0 1 2 0 2 3 2.22623
chimesFF: 	0 2 1 2 0 3 2.22623
chimesFF: 	1 0 2 0 3 2 2.22623
chimesFF: 	1 2 0 3 0 2 2.22623
chimesFF: 	2 0 1 2 3 0 2.22623
chimesFF: 	2 1 0 3 2 0 2.22623
chimesFF: 	0 1 3 0 2 2 2.22623
chimesFF: 	0 3 1 2 0 2 2.22623
chimesFF: 	1 0 3 0 2 2 2.22623
chimesFF: 	1 3 0 2 0 2 2.22623
chimesFF: 	3 0 1 2 2 0 2.22623
chimesFF: 	3 1 0 2 2 0 2.22623
chimesFF: 	2 2 3 0 0 1 2.22623
chimesFF: 	2 3 2 0 0 1 2.22623
chimesFF: 	2 2 3 0 1 0 2.22623
chimesFF: 	2 3 2 1 0 0 2.22623
chimesFF: 	3 2 2 0 1 0 2.22623
chimesFF: 	3 2 2 1 0 0 2.22623
chimesFF: 	0 0 2 2 0 0 -5.37504
chimesFF: 	0 2 0 0 2 0 -5.37504
chimesFF: 	2 0 0 0 0 2 -5.37504
chimesFF: 	0 0 2 2 0 2 0.80783
chimesFF: 	0 2 0 0 2 2 0.80783
chimesFF: 	0 0 2 2 2 0 0.80783
chimesFF: 	0 2 0 2 2 0 0.80783
chimesFF: 	2 0 0 0 2 2 0.80783
chimesFF: 	2 0 0 2 0 2 0.80783
chimesFF: 	0 2 2 0 2 0 0.80783
chimesFF: 	0 2 2 2 0 0 0.80783
chimesFF: 	2 0 2 0 0 2 0.80783
chimesFF: 	2 2 0 0 0 2 0.80783
chimesFF: 	2 0 2 2 0 0 0.80783
chimesFF: 	2 2 0 0 2 0 0.80783
chimesFF: 	0 0 2 2 3 3 0.70302
chimesFF: 	0 2 0 3 2 3 0.70302
chimesFF: 	2 0 0 3 3 2 0.70302
chimesFF: 	0 2 3 0 2 3 0.70302
chimesFF: 	0 3 2 2 0 3 0.70302
chimesFF: 	2 0 3 0 3 2 0.70302
chimesFF: 	2 3 0 3 0 2 0.70302
chimesFF: 	3 0 2 2 3 0 0.70302
chimesFF: 	3 2 0 3 2 0 0.70302
chimesFF: 	2 3 3 0 0 2 0.70302
chimesFF: 	3 2 3 0 2 0 0.70302
chimesFF: 	3 3 2 2 0 0 0.70302
chimesFF: 	0 0 2 3 0 1 -0.26659
chimesFF: 	0 2 0 0 3 1 -0.26659
chimesFF: 	0 0 2 3 1 0 -0.26659
chimesFF: 	0 2 0 1 3 0 -0.26659
chimesFF: 	2 0 0 0 1 3 -0.26659
chimesFF: 	2 0 0 1 0 3 -0.26659
chimesFF: 	0 3 0 0 2 1 -0.26659
chimesFF: 	0 0 3 2 0 1 -0.26659
chimesFF: 	3 0 0 0 1 2 -0.26659
chimesFF: 	3 0 0 1 0 2 -0.26659
chimesFF: 	0 0 3 2 1 0 -0.26659
chimesFF: 	0 3 0 1 2 0 -0.26659
chimesFF: 	0 3 1 0 2 0 -0.26659
chimesFF: 	0 1 3 2 0 0 -0.26659
chimesFF: 	3 0 1 0 0 2 -0.26659
chimesFF: 	3 1 0 0 0 2 -0.26659
chimesFF: 	1 0 3 2 0 0 -0.26659
chimesFF: 	1 3 0 0 2 0 -0.26659
chimesFF: 	2 0 1 0 0 3 -0.26659
chimesFF: 	2 1 0 0 0 3 -0.26659
chimesFF: 	0 2 1 0 3 0 -0.26659
chimesFF: 	0 1 2 3 0 0 -0.26659
chimesFF: 	1 2 0 0 3 0 -0.26659
chimesFF: 	1 0 2 3 0 0 -0.26659
chimesFF: 	0 0 2 3 0 3 -1.07086
chimesFF: 	0 2 0 0 3 3 -1.07086
chimesFF: 	0 0 2 3 3 0 -1.07086
chimesFF: 	0 2 0 3 3 0 -1.07086
chimesFF: 	2 0 0 0 3 3 -1.07086
chimesFF: 	2 0 0 3 0 3 -1.07086
chimesFF: 	0 3 0 0 2 3 -1.07086
chimesFF: 	0 0 3 2 0 3 -1.07086
chimesFF: 	3 0 0 0 3 2 -1.07086
chimesFF: 	3 0 0 3 0 2 -1.07086
chimesFF: 	0 0 3 2 3 0 -1.07086
chimesFF: 	0 3 0 3 2 0 -1.07086
chimesFF: 	0 3 3 0 2 0 -1.07086
chimesFF: 	0 3 3 2 0 0 -1.07086
chimesFF: 	3 0 3 0 0 2 -1.07086
chimesFF: 	3 3 0 0 0 2 -1.07086
chimesFF: 	3 0 3 2 0 0 -1.07086
chimesFF: 	3 3 0 0 2 0 -1.07086
chimesFF: 	2 0 3 0 0 3 -1.07086
chimesFF: 	2 3 0 0 0 3 -1.07086
chimesFF: 	0 2 3 0 3 0 -1.07086
chimesFF: 	0 3 2 3 0 0 -1.07086
chimesFF: 	3 2 0 0 3 0 -1.07086
chimesFF: 	3 0 2 3 0 0 -1.07086
chimesFF: 	0 0 2 3 1 3 -0.43028
chimesFF: 	0 2 0 1 3 3 -0.43028
chimesFF: 	0 0 2 3 3 1 -0.43028
chimesFF: 	0 2 0 3 3 1 -0.43028
chimesFF: 	2 0 0 1 3 3 -0.43028
chimesFF: 	2 0 0 3 1 3 -0.43028
chimesFF: 	0 3 1 0 2 3 -0.43028
chimesFF: 	0 1 3 2 0 3 -0.43028
chimesFF: 	3 0 1 0 3 2 -0.43028
chimesFF: 	3 1 0 3 0 2 -0.43028
chimesFF: 	1 0 3 2 3 0 -0.43028
chimesFF: 	1 3 0 3 2 0 -0.43028
chimesFF: 	0 3 3 0 2 1 -0.43028
chimesFF: 	0 3 3 2 0 1 -0.43028
chimesFF: 	3 0 3 0 1 2 -0.43028
chimesFF: 	3 3 0 1 0 2 -0.43028
chimesFF: 	3 0 3 2 1 0 -0.43028
chimesFF: 	3 3 0 1 2 0 -0.43028
chimesFF: 	2 1 3 0 0 3 -0.43028
chimesFF: 	2 3 1 0 0 3 -0.43028
chimesFF: 	1 2 3 0 3 0 -0.43028
chimesFF: 	1 3 2 3 0 0 -0.43028
chimesFF: 	3 2 1 0 3 0 -0.43028
chimesFF: 	3 1 2 3 0 0 -0.43028
chimesFF: 	0 0 2 3 3 3 1.61744
chimesFF: 	0 2 0 3 3 3 1.61744
chimesFF: 	2 0 0 3 3 3 1.61744
chimesFF: 	0 3 3 0 2 3 1.61744
chimesFF: 	0 3 3 2 0 3 1.61744
chimesFF: 	3 0 3 0 3 2 1.61744
chimesFF: 	3 3 0 3 0 2 1.61744
chimesFF: 	3 0 3 2 3 0 1.61744
chimesFF: 	3 3 0 3 2 0 1.61744
chimesFF: 	2 3 3 0 0 3 1.61744
chimesFF: 	3 2 3 0 3 0 1.61744
chimesFF: 	3 3 2 3 0 0 1.61744
chimesFF: 	0 0 3 1 1 2 -1.36540
chimesFF: 	0 3 0 1 1 2 -1.36540
chimesFF: 	0 0 3 1 2 1 -1.36540
chimesFF: 	0 3 0 2 1 1 -1.36540
chimesFF: 	3 0 0 1 2 1 -1.36540
chimesFF: 	3 0 0 2 1 1 -1.36540
chimesFF: 	0 1 1 0 3 2 -1.36540
chimesFF: 	0 1 1 3 0 2 -1.36540
chimesFF: 	1 0 1 0 2 3 -1.36540
chimesFF: 	1 1 0 2 0 3 -1.36540
chimesFF: 	1 0 1 3 2 0 -1.36540
chimesFF: 	1 1 0 2 3 0 -1.36540
chimesFF: 	0 1 2 0 3 1 -1.36540
chimesFF: 	0 2 1 3 0 1 -1.36540
chimesFF: 	1 0 2 0 1 3 -1.36540
chimesFF: 	1 2 0 1 0 3 -1.36540
chimesFF: 	2 0 1 3 1 0 -1.36540
chimesFF: 	2 1 0 1 3 0 -1.36540
chimesFF: 	3 1 2 0 0 1 -1.36540
chimesFF: 	3 2 1 0 0 1 -1.36540
chimesFF: 	1 3 2 0 1 0 -1.36540
chimesFF: 	1 2 3 1 0 0 -1.36540
chimesFF: 	2 3 1 0 1 0 -1.36540
chimesFF: 	2 1 3 1 0 0 -1.36540
chimesFF: 	0 0 3 1 2 3 -0.52018
chimesFF: 	0 3 0 2 1 3 -0.52018
chimesFF: 	0 0 3 1 3 2 -0.52018
chimesFF: 	0 3 0 3 1 2 -0.52018
chimesFF: 	3 0 0 2 3 1 -0.52018
chimesFF: 	3 0 0 3 2 1 -0.52018
chimesFF: 	0 1 2 0 3 3 -0.52018
chimesFF: 	0 2 1 3 0 3 -0.52018
chimesFF: 	1 0 2 0 3 3 -0.52018
chimesFF: 	1 2 0 3 0 3 -0.52018
chimesFF: 	2 0 1 3 3 0 -0.52018
chimesFF: 	2 1 0 3 3 0 -0.52018
chimesFF: 	0 1 3 0 3 2 -0.52018
chimesFF: 	0 3 1 3 0 2 -0.52018
chimesFF: 	1 0 3 0 2 3 -0.52018
chimesFF: 	1 3 0 2 0 3 -0.52018
chimesFF: 	3 0 1 3 2 0 -0.52018
chimesFF: 	3 1 0 2 3 0 -0.52018
chimesFF: 	3 2 3 0 0 1 -0.52018
chimesFF: 	3 3 2 0 0 1 -0.52018
chimesFF: 	2 3 3 0 1 0 -0.52018
chimesFF: 	2 3 3 1 0 0 -0.52018
chimesFF: 	3 3 2 0 1 0 -0.52018
chimesFF: 	3 2 3 1 0 0 -0.52018
chimesFF: 	0 0 3 2 1 3 0.80318
chimesFF: 	0 3 0 1 2 3 0.80318
chimesFF: 	0 0 3 2 3 1 0.80318
chimesFF: 	0 3 0 3 2 1 0.80318
chimesFF: 	3 0 0 1 3 2 0.80318
chimesFF: 	3 0 0 3 1 2 0.80318
chimesFF: 	0 2 1 0 3 3 0.80318
chimesFF: 	0 1 2 3 0 3 0.80318
chimesFF: 	2 0 1 0 3 3 0.80318
chimesFF: 	2 1 0 3 0 3 0.80318
chimesFF: 	1 0 2 3 3 0 0.80318
chimesFF: 	1 2 0 3 3 0 0.80318
chimesFF: 	0 2 3 0 3 1 0.80318
chimesFF: 	0 3 2 3 0 1 0.80318
chimesFF: 	2 0 3 0 1 3 0.80318
chimesFF: 	2 3 0 1 0 3 0.80318
chimesFF: 	3 0 2 3 1 0 0.80318
chimesFF: 	3 2 0 1 3 0 0.80318
chimesFF: 	3 1 3 0 0 2 0.80318
chimesFF: 	3 3 1 0 0 2 0.80318
chimesFF: 	1 3 3 0 2 0 0.80318
chimesFF: 	1 3 3 2 0 0 0.80318
chimesFF: 	3 3 1 0 2 0 0.80318
chimesFF: 	3 1 3 2 0 0 0.80318
chimesFF: 	0 0 3 2 2 3 1.10702
chimesFF: 	0 3 0 2 2 3 1.10702
chimesFF: 	0 0 3 2 3 2 1.10702
chimesFF: 	0 3 0 3 2 2 1.10702
chimesFF: 	3 0 0 2 3 2 1.10702
chimesFF: 	3 0 0 3 2 2 1.10702
chimesFF: 	0 2 2 0 3 3 1.10702
chimesFF: 	0 2 2 3 0 3 1.10702
chimesFF: 	2 0 2 0 3 3 1.10702
chimesFF: 	2 2 0 3 0 3 1.10702
chimesFF: 	2 0 2 3 3 0 1.10702
chimesFF: 	2 2 0 3 3 0 1.10702
chimesFF: 	0 2 3 0 3 2 1.10702
chimesFF: 	0 3 2 3 0 2 1.10702
chimesFF: 	2 0 3 0 2 3 1.10702
chimesFF: 	2 3 0 2 0 3 1.10702
chimesFF: 	3 0 2 3 2 0 1.10702
chimesFF: 	3 2 0 2 3 0 1.10702
chimesFF: 	3 2 3 0 0 2 1.10702
chimesFF: 	3 3 2 0 0 2 1.10702
chimesFF: 	2 3 3 0 2 0 1.10702
chimesFF: 	2 3 3 2 0 0 1.10702
chimesFF: 	3 3 2 0 2 0 1.10702
chimesFF: 	3 2 3 2 0 0 1.10702
chimesFF: 	0 0 3 3 0 0 0.13094
chimesFF: 	0 3 0 0 3 0 0.13094
chimesFF: 	3 0 0 0 0 3 0.13094
chimesFF: 	0 0 3 3 0 2 4.04681
chimesFF: 	0 3 0 0 3 2 4.04681
chimesFF: 	0 0 3 3 2 0 4.04681
chimesFF: 	0 3 0 2 3 0 4.04681
chimesFF: 	3 0 0 0 2 3 4.04681
chimesFF: 	3 0 0 2 0 3 4.04681
chimesFF: 	0 3 2 0 3 0 4.04681
chimesFF: 	0 2 3 3 0 0 4.04681
chimesFF: 	3 0 2 0 0 3 4.04681
chimesFF: 	3 2 0 0 0 3 4.04681
chimesFF: 	2 0 3 3 0 0 4.04681
chimesFF: 	2 3 0 0 3 0 4.04681
chimesFF: 	0 0 3 3 0 3 0.74149
chimesFF: 	0 3 0 0 3 3 0.74149
chimesFF: 	0 0 3 3 3 0 0.74149
chimesFF: 	0 3 0 3 3 0 0.74149
chimesFF: 	3 0 0 0 3 3 0.74149
chimesFF: 	3 0 0 3 0 3 0.74149
chimesFF: 	0 3 3 0 3 0 0.74149
chimesFF: 	0 3 3 3 0 0 0.74149
chimesFF: 	3 0 3 0 0 3 0.74149
chimesFF: 	3 3 0 0 0 3 0.74149
chimesFF: 	3 0 3 3 0 0 0.74149
chimesFF: 	3 3 0 0 3 0 0.74149
chimesFF: 	0 0 3 3 2 2 -2.62313
chimesFF: 	0 3 0 2 3 2 -2.62313
chimesFF: 	3 0 0 2 2 3 -2.62313
chimesFF: 	0 3 2 0 3 2 -2.62313
chimesFF: 	0 2 3 3 0 2 -2.62313
chimesFF: 	3 0 2 0 2 3 -2.62313
chimesFF: 	3 2 0 2 0 3 -2.62313
chimesFF: 	2 0 3 3 2 0 -2.62313
chimesFF: 	2 3 0 2 3 0 -2.62313
chimesFF: 	3 2 2 0 0 3 -2.62313
chimesFF: 	2 3 2 0 3 0 -2.62313
chimesFF: 	2 2 3 3 0 0 -2.62313
chimesFF: 	0 0 3 3 3 3 0.61518
chimesFF: 	0 3 0 3 3 3 0.61518
chimesFF: 	3 0 0 3 3 3 0.61518
chimesFF: 	0 3 3 0 3 3 0.61518
chimesFF: 	0 3 3 3 0 3 0.61518
chimesFF: 	3 0 3 0 3 3 0.61518
chimesFF: 	3 3 0 3 0 3 0.61518
chimesFF: 	3 0 3 3 3 0 0.61518
chimesFF: 	3 3 0 3 3 0 0.61518
chimesFF: 	3 3 3 0 0 3 0.61518
chimesFF: 	3 3 3 0 3 0 0.61518
chimesFF: 	3 3 3 3 0 0 0.61518
chimesFF: 	0 1 1 1 2 0 -3.80302
chimesFF: 	0 1 1 2 1 0 -3.80302
chimesFF: 	1 0 1 1 0 2 -3.80302
chimesFF: 	1 1 0 0 1 2 -3.80302
chimesFF: 	1 0 1 2 0 1 -3.80302
chimesFF: 	1 1 0 0 2 1 -3.80302
chimesFF: 	0 1 2 1 1 0 -3.80302
chimesFF: 	0 2 1 1 1 0 -3.80302
chimesFF: 	1 0 2 1 0 1 -3.80302
chimesFF: 	1 2 0 0 1 1 -3.80302
chimesFF: 	2 0 1 1 0 1 -3.80302
chimesFF: 	2 1 0 0 1 1 -3.80302
chimesFF: 	0 1 1 1 3 0 -20.03156
chimesFF: 	0 1 1 3 1 0 -20.03156
chimesFF: 	1 0 1 1 0 3 -20.03156
chimesFF: 	1 1 0 0 1 3 -20.03156
chimesFF: 	1 0 1 3 0 1 -20.03156
chimesFF: 	1 1 0 0 3 1 -20.03156
chimesFF: 	0 1 3 1 1 0 -20.03156
chimesFF: 	0 3 1 1 1 0 -20.03156
chimesFF: 	1 0 3 1 0 1 -20.03156
chimesFF: 	1 3 0 0 1 1 -20.03156
chimesFF: 	3 0 1 1 0 1 -20.03156
chimesFF: 	3 1 0 0 1 1 -20.03156
chimesFF: 	0 1 1 1 3 3 -2.17881
chimesFF: 	0 1 1 3 1 3 -2.17881
chimesFF: 	1 0 1 1 3 3 -2.17881
chimesFF: 	1 1 0 3 1 3 -2.17881
chimesFF: 	1 0 1 3 3 1 -2.17881
chimesFF: 	1 1 0 3 3 1 -2.17881
chimesFF: 	0 1 3 1 1 3 -2.17881
chimesFF: 	0 3 1 1 1 3 -2.17881
chimesFF: 	1 0 3 1 3 1 -2.17881
chimesFF: 	1 3 0 3 1 1 -2.17881
chimesFF: 	3 0 1 1 3 1 -2.17881
chimesFF: 	3 1 0 3 1 1 -2.17881
chimesFF: 	1 1 3 0 1 3 -2.17881
chimesFF: 	1 3 1 1 0 3 -2.17881
chimesFF: 	1 1 3 0 3 1 -2.17881
chimesFF: 	1 3 1 3 0 1 -2.17881
chimesFF: 	3 1 1 1 3 0 -2.17881
chimesFF: 	3 1 1 3 1 0 -2.17881
chimesFF: 	1 3 3 0 1 1 -2.17881
chimesFF: 	1 3 3 1 0 1 -2.17881
chimesFF: 	3 1 3 0 1 1 -2.17881
chimesFF: 	3 3 1 1 0 1 -2.17881
chimesFF: 	3 1 3 1 1 0 -2.17881
chimesFF: 	3 3 1 1 1 0 -2.17881
chimesFF: 	0 1 1 2 3 0 4.44521
chimesFF: 	0 1 1 3 2 0 4.44521
chimesFF: 	1 0 1 2 0 3 4.44521
chimesFF: 	1 1 0 0 2 3 4.44521
chimesFF: 	1 0 1 3 0 2 4.44521
chimesFF: 	1 1 0 0 3 2 4.44521
chimesFF: 	0 2 3 1 1 0 4.44521
chimesFF: 	0 3 2 1 1 0 4.44521
chimesFF: 	2 0 3 1 0 1 4.44521
chimesFF: 	2 3 0 0 1 1 4.44521
chimesFF: 	3 0 2 1 0 1 4.44521
chimesFF: 	3 2 0 0 1 1 4.44521
chimesFF: 	1 2 0 0 1 3 4.44521
chimesFF: 	1 0 2 1 0 3 4.44521
chimesFF: 	2 1 0 0 3 1 4.44521
chimesFF: 	2 0 1 3 0 1 4.44521
chimesFF: 	0 1 2 1 3 0 4.44521
chimesFF: 	0 2 1 3 1 0 4.44521
chimesFF: 	1 3 0 0 1 2 4.44521
chimesFF: 	1 0 3 1 0 2 4.44521
chimesFF: 	3 1 0 0 2 1 4.44521
chimesFF: 	3 0 1 2 0 1 4.44521
chimesFF: 	0 1 3 1 2 0 4.44521
chimesFF: 	0 3 1 2 1 0 4.44521
chimesFF: 	0 1 1 3 3 2 1.46446
chimesFF: 	1 0 1 3 2 3 1.46446
chimesFF: 	1 1 0 2 3 3 1.46446
chimesFF: 	0 3 3 1 1 2 1.46446
chimesFF: 	3 0 3 1 2 1 1.46446
chimesFF: 	3 3 0 2 1 1 1.46446
chimesFF: 	1 3 2 0 1 3 1.46446
chimesFF: 	1 2 3 1 0 3 1.46446
chimesFF: 	3 1 2 0 3 1 1.46446
chimesFF: 	3 2 1 3 0 1 1.46446
chimesFF: 	2 1 3 1 3 0 1.46446
chimesFF: 	2 3 1 3 1 0 1.46446
chimesFF: 	0 1 2 1 2 3 -2.70363
chimesFF: 	0 2 1 2 1 3 -2.70363
chimesFF: 	1 0 2 1 3 2 -2.70363
chimesFF: 	1 2 0 3 1 2 -2.70363
chimesFF: 	2 0 1 2 3 1 -2.70363
chimesFF: 	2 1 0 3 2 1 -2.70363
chimesFF: 	1 1 3 0 2 2 -2.70363
chimesFF: 	1 3 1 2 0 2 -2.70363
chimesFF: 	3 1 1 2 2 0 -2.70363
chimesFF: 	2 2 3 0 1 1 -2.70363
chimesFF: 	2 3 2 1 0 1 -2.70363
chimesFF: 	3 2 2 1 1 0 -2.70363
chimesFF: 	0 1 2 2 3 1 0.03300
chimesFF: 	0 2 1 3 2 1 0.03300
chimesFF: 	1 0 2 2 1 3 0.03300
chimesFF: 	1 2 0 1 2 3 0.03300
chimesFF: 	2 0 1 3 1 2 0.03300
chimesFF: 	2 1 0 1 3 2 0.03300
chimesFF: 	0 2 3 1 2 1 0.03300
chimesFF: 	0 3 2 2 1 1 0.03300
chimesFF: 	2 0 3 1 1 2 0.03300
chimesFF: 	2 3 0 1 1 2 0.03300
chimesFF: 	3 0 2 2 1 1 0.03300
chimesFF: 	3 2 0 1 2 1 0.03300
chimesFF: 	1 2 1 0 2 3 0.03300
chimesFF: 	1 1 2 2 0 3 0.03300
chimesFF: 	2 1 1 0 3 2 0.03300
chimesFF: 	2 1 1 3 0 2 0.03300
chimesFF: 	1 1 2 2 3 0 0.03300
chimesFF: 	1 2 1 3 2 0 0.03300
chimesFF: 	2 3 1 0 1 2 0.03300
chimesFF: 	2 1 3 1 0 2 0.03300
chimesFF: 	3 2 1 0 2 1 0.03300
chimesFF: 	3 1 2 2 0 1 0.03300
chimesFF: 	1 2 3 1 2 0 0.03300
chimesFF: 	1 3 2 2 1 0 0.03300
chimesFF: 	0 1 2 2 3 2 -0.28465
chimesFF: 	0 2 1 3 2 2 -0.28465
chimesFF: 	1 0 2 2 2 3 -0.28465
chimesFF: 	1 2 0 2 2 3 -0.28465
chimesFF: 	2 0 1 3 2 2 -0.28465
chimesFF: 	2 1 0 2 3 2 -0.28465
chimesFF: 	0 2 3 1 2 2 -0.28465
chimesFF: 	0 3 2 2 1 2 -0.28465
chimesFF: 	2 0 3 1 2 2 -0.28465
chimesFF: 	2 3 0 2 1 2 -0.28465
chimesFF: 	3 0 2 2 2 1 -0.28465
chimesFF: 	3 2 0 2 2 1 -0.28465
chimesFF: 	1 2 2 0 2 3 -0.28465
chimesFF: 	1 2 2 2 0 3 -0.28465
chimesFF: 	2 1 2 0 3 2 -0.28465
chimesFF: 	2 2 1 3 0 2 -0.28465
chimesFF: 	2 1 2 2 3 0 -0.28465
chimesFF: 	2 2 1 3 2 0 -0.28465
chimesFF: 	2 3 2 0 1 2 -0.28465
chimesFF: 	2 2 3 1 0 2 -0.28465
chimesFF: 	3 2 2 0 2 1 -0.28465
chimesFF: 	3 2 2 2 0 1 -0.28465
chimesFF: 	2 2 3 1 2 0 -0.28465
chimesFF: 	2 3 2 2 1 0 -0.28465
chimesFF: 	0 1 2 2 3 3 -0.89597
chimesFF: 	0 2 1 3 2 3 -0.89597
chimesFF: 	1 0 2 2 3 3 -0.89597
chimesFF: 	1 2 0 3 2 3 -0.89597
chimesFF: 	2 0 1 3 3 2 -0.89597
chimesFF: 	2 1 0 3 3 2 -0.89597
chimesFF: 	0 2 3 1 2 3 -0.89597
chimesFF: 	0 3 2 2 1 3 -0.89597
chimesFF: 	2 0 3 1 3 2 -0.89597
chimesFF: 	2 3 0 3 1 2 -0.89597
chimesFF: 	3 0 2 2 3 1 -0.89597
chimesFF: 	3 2 0 3 2 1 -0.89597
chimesFF: 	1 2 3 0 2 3 -0.89597
chimesFF: 	1 3 2 2 0 3 -0.89597
chimesFF: 	2 1 3 0 3 2 -0.89597
chimesFF: 	2 3 1 3 0 2 -0.89597
chimesFF: 	3 1 2 2 3 0 -0.89597
chimesFF: 	3 2 1 3 2 0 -0.89597
chimesFF: 	2 3 3 0 1 2 -0.89597
chimesFF: 	2 3 3 1 0 2 -0.89597
chimesFF: 	3 2 3 0 2 1 -0.89597
chimesFF: 	3 3 2 2 0 1 -0.89597
chimesFF: 	3 2 3 1 2 0 -0.89597
chimesFF: 	3 3 2 2 1 0 -0.89597
chimesFF: 	0 1 2 3 1 1 1.63988
chimesFF: 	0 2 1 1 3 1 1.63988
chimesFF: 	1 0 2 3 1 1 1.63988
chimesFF: 	1 2 0 1 3 1 1.63988
chimesFF: 	2 0 1 1 1 3 1.63988
chimesFF: 	2 1 0 1 1 3 1.63988
chimesFF: 	0 3 1 1 2 1 1.63988
chimesFF: 	0 1 3 2 1 1 1.63988
chimesFF: 	3 0 1 1 1 2 1.63988
chimesFF: 	3 1 0 1 1 2 1.63988
chimesFF: 	1 0 3 2 1 1 1.63988
chimesFF: 	1 3 0 1 2 1 1.63988
chimesFF: 	1 3 1 0 2 1 1.63988
chimesFF: 	1 1 3 2 0 1 1.63988
chimesFF: 	3 1 1 0 1 2 1.63988
chimesFF: 	3 1 1 1 0 2 1.63988
chimesFF: 	1 1 3 2 1 0 1.63988
chimesFF: 	1 3 1 1 2 0 1.63988
chimesFF: 	2 1 1 0 1 3 1.63988
chimesFF: 	2 1 1 1 0 3 1.63988
chimesFF: 	1 2 1 0 3 1 1.63988
chimesFF: 	1 1 2 3 0 1 1.63988
chimesFF: 	1 2 1 1 3 0 1.63988
chimesFF: 	1 1 2 3 1 0 1.63988
chimesFF: 	0 1 2 3 1 2 0.21870
chimesFF: 	0 2 1 1 3 2 0.21870
chimesFF: 	1 0 2 3 2 1 0.21870
chimesFF: 	1 2 0 2 3 1 0.21870
chimesFF: 	2 0 1 1 2 3 0.21870
chimesFF: 	2 1 0 2 1 3 0.21870
chimesFF: 	0 3 1 1 2 2 0.21870
chimesFF: 	0 1 3 2 1 2 0.21870
chimesFF: 	3 0 1 1 2 2 0.21870
chimesFF: 	3 1 0 2 1 2 0.21870
chimesFF: 	1 0 3 2 2 1 0.21870
chimesFF: 	1 3 0 2 2 1 0.21870
chimesFF: 	1 3 2 0 2 1 0.21870
chimesFF: 	1 2 3 2 0 1 0.21870
chimesFF: 	3 1 2 0 1 2 0.21870
chimesFF: 	3 2 1 1 0 2 0.21870
chimesFF: 	2 1 3 2 1 0 0.21870
chimesFF: 	2 3 1 1 2 0 0.21870
chimesFF: 	2 1 2 0 1 3 0.21870
chimesFF: 	2 2 1 1 0 3 0.21870
chimesFF: 	1 2 2 0 3 1 0.21870
chimesFF: 	1 2 2 3 0 1 0.21870
chimesFF: 	2 2 1 1 3 0 0.21870
chimesFF: 	2 1 2 3 1 0 0.21870
chimesFF: 	0 1 2 3 2 3 0.26433
chimesFF: 	0 2 1 2 3 3 0.26433
chimesFF: 	1 0 2 3 3 2 0.26433
chimesFF: 	1 2 0 3 3 2 0.26433
chimesFF: 	2 0 1 2 3 3 0.26433
chimesFF: 	2 1 0 3 2 3 0.26433
chimesFF: 	0 3 2 1 2 3 0.26433
chimesFF: 	0 2 3 2 1 3 0.26433
chimesFF: 	3 0 2 1 3 2 0.26433
chimesFF: 	3 2 0 3 1 2 0.26433
chimesFF: 	2 0 3 2 3 1 0.26433
chimesFF: 	2 3 0 3 2 1 0.26433
chimesFF: 	1 3 3 0 2 2 0.26433
chimesFF: 	1 3 3 2 0 2 0.26433
chimesFF: 	3 1 3 0 2 2 0.26433
chimesFF: 	3 3 1 2 0 2 0.26433
chimesFF: 	3 1 3 2 2 0 0.26433
chimesFF: 	3 3 1 2 2 0 0.26433
chimesFF: 	2 2 3 0 1 3 0.26433
chimesFF: 	2 3 2 1 0 3 0.26433
chimesFF: 	2 2 3 0 3 1 0.26433
chimesFF: 	2 3 2 3 0 1 0.26433
chimesFF: 	3 2 2 1 3 0 0.26433
chimesFF: 	3 2 2 3 1 0 0.26433
chimesFF: 	0 1 2 3 3 2 -3.23500
chimesFF: 	0 2 1 3 3 2 -3.23500
chimesFF: 	1 0 2 3 2 3 -3.23500
chimesFF: 	1 2 0 2 3 3 -3.23500
chimesFF: 	2 0 1 3 2 3 -3.23500
chimesFF: 	2 1 0 2 3 3 -3.23500
chimesFF: 	0 3 3 1 2 2 -3.23500
chimesFF: 	0 3 3 2 1 2 -3.23500
chimesFF: 	3 0 3 1 2 2 -3.23500
chimesFF: 	3 3 0 2 1 2 -3.23500
chimesFF: 	3 0 3 2 2 1 -3.23500
chimesFF: 	3 3 0 2 2 1 -3.23500
chimesFF: 	1 3 2 0 2 3 -3.23500
chimesFF: 	1 2 3 2 0 3 -3.23500
chimesFF: 	3 1 2 0 3 2 -3.23500
chimesFF: 	3 2 1 3 0 2 -3.23500
chimesFF: 	2 1 3 2 3 0 -3.23500
chimesFF: 	2 3 1 3 2 0 -3.23500
chimesFF: 	2 3 2 0 1 3 -3.23500
chimesFF: 	2 2 3 1 0 3 -3.23500
chimesFF: 	3 2 2 0 3 1 -3.23500
chimesFF: 	3 2 2 3 0 1 -3.23500
chimesFF: 	2 2 3 1 3 0 -3.23500
chimesFF: 	2 3 2 3 1 0 -3.23500
chimesFF: 	0 1 3 1 3 3 1.35544
chimesFF: 	0 3 1 3 1 3 1.35544
chimesFF: 	1 0 3 1 3 3 1.35544
chimesFF: 	1 3 0 3 1 3 1.35544
chimesFF: 	3 0 1 3 3 1 1.35544
chimesFF: 	3 1 0 3 3 1 1.35544
chimesFF: 	1 1 3 0 3 3 1.35544
chimesFF: 	1 3 1 3 0 3 1.35544
chimesFF: 	3 1 1 3 3 0 1.35544
chimesFF: 	3 3 3 0 1 1 1.35544
chimesFF: 	3 3 3 1 0 1 1.35544
chimesFF: 	3 3 3 1 1 0 1.35544
chimesFF: 	0 1 3 2 2 2 1.02449
chimesFF: 	0 3 1 2 2 2 1.02449
chimesFF: 	1 0 3 2 2 2 1.02449
chimesFF: 	1 3 0 2 2 2 1.02449
chimesFF: 	3 0 1 2 2 2 1.02449
chimesFF: 	3 1 0 2 2 2 1.02449
chimesFF: 	0 2 2 1 3 2 1.02449
chimesFF: 	0 2 2 3 1 2 1.02449
chimesFF: 	2 0 2 1 2 3 1.02449
chimesFF: 	2 2 0 2 1 3 1.02449
chimesFF: 	2 0 2 3 2 1 1.02449
chimesFF: 	2 2 0 2 3 1 1.02449
chimesFF: 	1 2 2 0 3 2 1.02449
chimesFF: 	1 2 2 3 0 2 1.02449
chimesFF: 	2 1 2 0 2 3 1.02449
chimesFF: 	2 2 1 2 0 3 1.02449
chimesFF: 	2 1 2 3 2 0 1.02449
chimesFF: 	2 2 1 2 3 0 1.02449
chimesFF: 	3 2 2 0 1 2 1.02449
chimesFF: 	3 2 2 1 0 2 1.02449
chimesFF: 	2 3 2 0 2 1 1.02449
chimesFF: 	2 2 3 2 0 1 1.02449
chimesFF: 	2 3 2 1 2 0 1.02449
chimesFF: 	2 2 3 2 1 0 1.02449
chimesFF: 	0 1 3 2 3 3 -0.97195
chimesFF: 	0 3 1 3 2 3 -0.97195
chimesFF: 	1 0 3 2 3 3 -0.97195
chimesFF: 	1 3 0 3 2 3 -0.97195
chimesFF: 	3 0 1 3 3 2 -0.97195
chimesFF: 	3 1 0 3 3 2 -0.97195
chimesFF: 	0 2 3 1 3 3 -0.97195
chimesFF: 	0 3 2 3 1 3 -0.97195
chimesFF: 	2 0 3 1 3 3 -0.97195
chimesFF: 	2 3 0 3 1 3 -0.97195
chimesFF: 	3 0 2 3 3 1 -0.97195
chimesFF: 	3 2 0 3 3 1 -0.97195
chimesFF: 	1 2 3 0 3 3 -0.97195
chimesFF: 	1 3 2 3 0 3 -0.97195
chimesFF: 	2 1 3 0 3 3 -0.97195
chimesFF: 	2 3 1 3 0 3 -0.97195
chimesFF: 	3 1 2 3 3 0 -0.97195
chimesFF: 	3 2 1 3 3 0 -0.97195
chimesFF: 	3 3 3 0 1 2 -0.97195
chimesFF: 	3 3 3 1 0 2 -0.97195
chimesFF: 	3 3 3 0 2 1 -0.97195
chimesFF: 	3 3 3 2 0 1 -0.97195
chimesFF: 	3 3 3 1 2 0 -0.97195
chimesFF: 	3 3 3 2 1 0 -0.97195
chimesFF: 	0 1 3 3 1 3 6.81758
chimesFF: 	0 3 1 1 3 3 6.81758
chimesFF: 	1 0 3 3 3 1 6.81758
chimesFF: 	1 3 0 3 3 1 6.81758
chimesFF: 	3 0 1 1 3 3 6.81758
chimesFF: 	3 1 0 3 1 3 6.81758
chimesFF: 	1 3 3 0 3 1 6.81758
chimesFF: 	1 3 3 3 0 1 6.81758
chimesFF: 	3 1 3 0 1 3 6.81758
chimesFF: 	3 3 1 1 0 3 6.81758
chimesFF: 	3 1 3 3 1 0 6.81758
chimesFF: 	3 3 1 1 3 0 6.81758
chimesFF: 	0 1 3 3 2 2 1.31330
chimesFF: 	0 3 1 2 3 2 1.31330
chimesFF: 	1 0 3 3 2 2 1.31330
chimesFF: 	1 3 0 2 3 2 1.31330
chimesFF: 	3 0 1 2 2 3 1.31330
chimesFF: 	3 1 0 2 2 3 1.31330
chimesFF: 	0 3 2 1 3 2 1.31330
chimesFF: 	0 2 3 3 1 2 1.31330
chimesFF: 	3 0 2 1 2 3 1.31330
chimesFF: 	3 2 0 2 1 3 1.31330
chimesFF: 	2 0 3 3 2 1 1.31330
chimesFF: 	2 3 0 2 3 1 1.31330
chimesFF: 	1 3 2 0 3 2 1.31330
chimesFF: 	1 2 3 3 0 2 1.31330
chimesFF: 	3 1 2 0 2 3 1.31330
chimesFF: 	3 2 1 2 0 3 1.31330
chimesFF: 	2 1 3 3 2 0 1.31330
chimesFF: 	2 3 1 2 3 0 1.31330
chimesFF: 	3 2 2 0 1 3 1.31330
chimesFF: 	3 2 2 1 0 3 1.31330
chimesFF: 	2 3 2 0 3 1 1.31330
chimesFF: 	2 2 3 3 0 1 1.31330
chimesFF: 	2 3 2 1 3 0 1.31330
chimesFF: 	2 2 3 3 1 0 1.31330
chimesFF: 	0 1 3 3 3 1 -4.82942
chimesFF: 	0 3 1 3 3 1 -4.82942
chimesFF: 	1 0 3 3 1 3 -4.82942
chimesFF: 	1 3 0 1 3 3 -4.82942
chimesFF: 	3 0 1 3 1 3 -4.82942
chimesFF: 	3 1 0 1 3 3 -4.82942
chimesFF: 	0 3 3 1 3 1 -4.82942
chimesFF: 	0 3 3 3 1 1 -4.82942
chimesFF: 	3 0 3 1 1 3 -4.82942
chimesFF: 	3 3 0 1 1 3 -4.82942
chimesFF: 	3 0 3 3 1 1 -4.82942
chimesFF: 	3 3 0 1 3 1 -4.82942
chimesFF: 	1 3 1 0 3 3 -4.82942
chimesFF: 	1 1 3 3 0 3 -4.82942
chimesFF: 	3 1 1 0 3 3 -4.82942
chimesFF: 	3 1 1 3 0 3 -4.82942
chimesFF: 	1 1 3 3 3 0 -4.82942
chimesFF: 	1 3 1 3 3 0 -4.82942
chimesFF: 	3 3 1 0 1 3 -4.82942
chimesFF: 	3 1 3 1 0 3 -4.82942
chimesFF: 	3 3 1 0 3 1 -4.82942
chimesFF: 	3 1 3 3 0 1 -4.82942
chimesFF: 	1 3 3 1 3 0 -4.82942
chimesFF: 	1 3 3 3 1 0 -4.82942
chimesFF: 	0 2 2 2 3 2 0.55211
chimesFF: 	0 2 2 3 2 2 0.55211
chimesFF: 	2 0 2 2 2 3 0.55211
chimesFF: 	2 2 0 2 2 3 0.55211
chimesFF: 	2 0 2 3 2 2 0.55211
chimesFF: 	2 2 0 2 3 2 0.55211
chimesFF: 	0 2 3 2 2 2 0.55211
chimesFF: 	0 3 2 2 2 2 0.55211
chimesFF: 	2 0 3 2 2 2 0.55211
chimesFF: 	2 3 0 2 2 2 0.55211
chimesFF: 	3 0 2 2 2 2 0.55211
chimesFF: 	3 2 0 2 2 2 0.55211
chimesFF: 	2 2 2 0 2 3 0.55211
chimesFF: 	2 2 2 2 0 3 0.55211
chimesFF: 	2 2 2 0 3 2 0.55211
chimesFF: 	2 2 2 3 0 2 0.55211
chimesFF: 	2 2 2 2 3 0 0.55211
chimesFF: 	2 2 2 3 2 0 0.55211
chimesFF: 	2 3 2 0 2 2 0.55211
chimesFF: 	2 2 3 2 0 2 0.55211
chimesFF: 	3 2 2 0 2 2 0.55211
chimesFF: 	3 2 2 2 0 2 0.55211
chimesFF: 	2 2 3 2 2 0 0.55211
chimesFF: 	2 3 2 2 2 0 0.55211
chimesFF: 	0 2 2 3 3 1 0.42676
chimesFF: 	2 0 2 3 1 3 0.42676
chimesFF: 	2 2 0 1 3 3 0.42676
chimesFF: 	0 3 3 2 2 1 0.42676
chimesFF: 	3 0 3 2 1 2 0.42676
chimesFF: 	3 3 0 1 2 2 0.42676
chimesFF: 	2 3 1 0 2 3 0.42676
chimesFF: 	2 1 3 2 0 3 0.42676
chimesFF: 	3 2 1 0 3 2 0.42676
chimesFF: 	3 1 2 3 0 2 0.42676
chimesFF: 	1 2 3 2 3 0 0.42676
chimesFF: 	1 3 2 3 2 0 0.42676
chimesFF: 	0 2 2 3 3 2 -1.10729
chimesFF: 	2 0 2 3 2 3 -1.10729
chimesFF: 	2 2 0 2 3 3 -1.10729
chimesFF: 	0 3 3 2 2 2 -1.10729
chimesFF: 	3 0 3 2 2 2 -1.10729
chimesFF: 	3 3 0 2 2 2 -1.10729
chimesFF: 	2 3 2 0 2 3 -1.10729
chimesFF: 	2 2 3 2 0 3 -1.10729
chimesFF: 	3 2 2 0 3 2 -1.10729
chimesFF: 	3 2 2 3 0 2 -1.10729
chimesFF: 	2 2 3 2 3 0 -1.10729
chimesFF: 	2 3 2 3 2 0 -1.10729
chimesFF: 	0 2 2 3 3 3 -1.14815
chimesFF: 	2 0 2 3 3 3 -1.14815
chimesFF: 	2 2 0 3 3 3 -1.14815
chimesFF: 	0 3 3 2 2 3 -1.14815
chimesFF: 	3 0 3 2 3 2 -1.14815
chimesFF: 	3 3 0 3 2 2 -1.14815
chimesFF: 	2 3 3 0 2 3 -1.14815
chimesFF: 	2 3 3 2 0 3 -1.14815
chimesFF: 	3 2 3 0 3 2 -1.14815
chimesFF: 	3 3 2 3 0 2 -1.14815
chimesFF: 	3 2 3 2 3 0 -1.14815
chimesFF: 	3 3 2 3 2 0 -1.14815
chimesFF: 	0 2 3 3 2 2 2.35215
chimesFF: 	0 3 2 2 3 2 2.35215
chimesFF: 	2 0 3 3 2 2 2.35215
chimesFF: 	2 3 0 2 3 2 2.35215
chimesFF: 	3 0 2 2 2 3 2.35215
chimesFF: 	3 2 0 2 2 3 2.35215
chimesFF: 	2 3 2 0 3 2 2.35215
chimesFF: 	2 2 3 3 0 2 2.35215
chimesFF: 	3 2 2 0 2 3 2.35215
chimesFF: 	3 2 2 2 0 3 2.35215
chimesFF: 	2 2 3 3 2 0 2.35215
chimesFF: 	2 3 2 2 3 0 2.35215
chimesFF: 	0 2 3 3 3 2 0.62789
chimesFF: 	0 3 2 3 3 2 0.62789
chimesFF: 	2 0 3 3 2 3 0.62789
chimesFF: 	2 3 0 2 3 3 0.62789
chimesFF: 	3 0 2 3 2 3 0.62789
chimesFF: 	3 2 0 2 3 3 0.62789
chimesFF: 	0 3 3 2 3 2 0.62789
chimesFF: 	0 3 3 3 2 2 0.62789
chimesFF: 	3 0 3 2 2 3 0.62789
chimesFF: 	3 3 0 2 2 3 0.62789
chimesFF: 	3 0 3 3 2 2 0.62789
chimesFF: 	3 3 0 2 3 2 0.62789
chimesFF: 	2 3 2 0 3 3 0.62789
chimesFF: 	2 2 3 3 0 3 0.62789
chimesFF: 	3 2 2 0 3 3 0.62789
chimesFF: 	3 2 2 3 0 3 0.62789
chimesFF: 	2 2 3 3 3 0 0.62789
chimesFF: 	2 3 2 3 3 0 0.62789
chimesFF: 	3 3 2 0 2 3 0.62789
chimesFF: 	3 2 3 2 0 3 0.62789
chimesFF: 	3 3 2 0 3 2 0.62789
chimesFF: 	3 2 3 3 0 2 0.62789
chimesFF: 	2 3 3 2 3 0 0.62789
chimesFF: 	2 3 3 3 2 0 0.62789
chimesFF: 	0 2 3 3 3 3 -1.19533
chimesFF: 	0 3 2 3 3 3 -1.19533
chimesFF: 	2 0 3 3 3 3 -1.19533
chimesFF: 	2 3 0 3 3 3 -1.19533
chimesFF: 	3 0 2 3 3 3 -1.19533
chimesFF: 	3 2 0 3 3 3 -1.19533
chimesFF: 	0 3 3 2 3 3 -1.19533
chimesFF: 	0 3 3 3 2 3 -1.19533
chimesFF: 	3 0 3 2 3 3 -1.19533
chimesFF: 	3 3 0 3 2 3 -1.19533
chimesFF: 	3 0 3 3 3 2 -1.19533
chimesFF: 	3 3 0 3 3 2 -1.19533
chimesFF: 	2 3 3 0 3 3 -1.19533
chimesFF: 	2 3 3 3 0 3 -1.19533
chimesFF: 	3 2 3 0 3 3 -1.19533
chimesFF: 	3 3 2 3 0 3 -1.19533
chimesFF: 	3 2 3 3 3 0 -1.19533
chimesFF: 	3 3 2 3 3 0 -1.19533
chimesFF: 	3 3 3 0 2 3 -1.19533
chimesFF: 	3 3 3 2 0 3 -1.19533
chimesFF: 	3 3 3 0 3 2 -1.19533
chimesFF: 	3 3 3 3 0 2 -1.19533
chimesFF: 	3 3 3 2 3 0 -1.19533
chimesFF: 	3 3 3 3 2 0 -1.19533
chimesFF: 	0 3 3 3 3 2 -1.17000
chimesFF: 	3 0 3 3 2 3 -1.17000
chimesFF: 	3 3 0 2 3 3 -1.17000
chimesFF: 	3 3 2 0 3 3 -1.17000
chimesFF: 	3 2 3 3 0 3 -1.17000
chimesFF: 	2 3 3 3 3 0 -1.17000
chimesFF: 	1 1 3 3 2 3 -4.60439
chimesFF: 	1 3 1 2 3 3 -4.60439
chimesFF: 	1 1 3 3 3 2 -4.60439
chimesFF: 	1 3 1 3 3 2 -4.60439
chimesFF: 	3 1 1 2 3 3 -4.60439
chimesFF: 	3 1 1 3 2 3 -4.60439
chimesFF: 	1 3 2 1 3 3 -4.60439
chimesFF: 	1 2 3 3 1 3 -4.60439
chimesFF: 	3 1 2 1 3 3 -4.60439
chimesFF: 	3 2 1 3 1 3 -4.60439
chimesFF: 	2 1 3 3 3 1 -4.60439
chimesFF: 	2 3 1 3 3 1 -4.60439
chimesFF: 	1 3 3 1 3 2 -4.60439
chimesFF: 	1 3 3 3 1 2 -4.60439
chimesFF: 	3 1 3 1 2 3 -4.60439
chimesFF: 	3 3 1 2 1 3 -4.60439
chimesFF: 	3 1 3 3 2 1 -4.60439
chimesFF: 	3 3 1 2 3 1 -4.60439
chimesFF: 	3 2 3 1 1 3 -4.60439
chimesFF: 	3 3 2 1 1 3 -4.60439
chimesFF: 	2 3 3 1 3 1 -4.60439
chimesFF: 	2 3 3 3 1 1 -4.60439
chimesFF: 	3 3 2 1 3 1 -4.60439
chimesFF: 	3 2 3 3 1 1 -4.60439
chimesFF: 	1 1 3 3 3 3 1.41200
chimesFF: 	1 3 1 3 3 3 1.41200
chimesFF: 	3 1 1 3 3 3 1.41200
chimesFF: 	1 3 3 1 3 3 1.41200
chimesFF: 	1 3 3 3 1 3 1.41200
chimesFF: 	3 1 3 1 3 3 1.41200
chimesFF: 	3 3 1 3 1 3 1.41200
chimesFF: 	3 1 3 3 3 1 1.41200
chimesFF: 	3 3 1 3 3 1 1.41200
chimesFF: 	3 3 3 1 1 3 1.41200
chimesFF: 	3 3 3 1 3 1 1.41200
chimesFF: 	3 3 3 3 1 1 1.41200
chimesFF: 	1 2 3 2 3 2 -6.44012
chimesFF: 	1 3 2 3 2 2 -6.44012
chimesFF: 	2 1 3 2 2 3 -6.44012
chimesFF: 	2 3 1 2 2 3 -6.44012
chimesFF: 	3 1 2 3 2 2 -6.44012
chimesFF: 	3 2 1 2 3 2 -6.44012
chimesFF: 	2 2 2 1 3 3 -6.44012
chimesFF: 	2 2 2 3 1 3 -6.44012
chimesFF: 	2 2 2 3 3 1 -6.44012
chimesFF: 	3 3 2 1 2 2 -6.44012
chimesFF: 	3 2 3 2 1 2 -6.44012
chimesFF: 	2 3 3 2 2 1 -6.44012
chimesFF: 	1 2 3 3 3 3 -3.32704
chimesFF: 	1 3 2 3 3 3 -3.32704
chimesFF: 	2 1 3 3 3 3 -3.32704
chimesFF: 	2 3 1 3 3 3 -3.32704
chimesFF: 	3 1 2 3 3 3 -3.32704
chimesFF: 	3 2 1 3 3 3 -3.32704
chimesFF: 	1 3 3 2 3 3 -3.32704
chimesFF: 	1 3 3 3 2 3 -3.32704
chimesFF: 	3 1 3 2 3 3 -3.32704
chimesFF: 	3 3 1 3 2 3 -3.32704
chimesFF: 	3 1 3 3 3 2 -3.32704
chimesFF: 	3 3 1 3 3 2 -3.32704
chimesFF: 	2 3 3 1 3 3 -3.32704
chimesFF: 	2 3 3 3 1 3 -3.32704
chimesFF: 	3 2 3 1 3 3 -3.32704
chimesFF: 	3 3 2 3 1 3 -3.32704
chimesFF: 	3 2 3 3 3 1 -3.32704
chimesFF: 	3 3 2 3 3 1 -3.32704
chimesFF: 	3 3 3 1 2 3 -3.32704
chimesFF: 	3 3 3 2 1 3 -3.32704
chimesFF: 	3 3 3 1 3 2 -3.32704
chimesFF: 	3 3 3 3 1 2 -3.32704
chimesFF: 	3 3 3 2 3 1 -3.32704
chimesFF: 	3 3 3 3 2 1 -3.32704
chimesFF: 	1 3 3 3 3 2 0.93416
chimesFF: 	3 1 3 3 2 3 0.93416
chimesFF: 	3 3 1 2 3 3 0.93416
chimesFF: 	3 3 2 1 3 3 0.93416
chimesFF: 	3 2 3 3 1 3 0.93416
chimesFF: 	2 3 3 3 3 1 0.93416
chimesFF: 	1 3 3 3 3 3 0.70023
chimesFF: 	3 1 3 3 3 3 0.70023
chimesFF: 	3 3 1 3 3 3 0.70023
chimesFF: 	3 3 3 1 3 3 0.70023
chimesFF: 	3 3 3 3 1 3 0.70023
chimesFF: 	3 3 3 3 3 1 0.70023
chimesFF: 	2 2 3 3 3 3 0.47855
chimesFF: 	2 3 2 3 3 3 0.47855
chimesFF: 	3 2 2 3 3 3 0.47855
chimesFF: 	2 3 3 2 3 3 0.47855
chimesFF: 	2 3 3 3 2 3 0.47855
chimesFF: 	3 2 3 2 3 3 0.47855
chimesFF: 	3 3 2 3 2 3 0.47855
chimesFF: 	3 2 3 3 3 2 0.47855
chimesFF: 	3 3 2 3 3 2 0.47855
chimesFF: 	3 3 3 2 2 3 0.47855
chimesFF: 	3 3 3 2 3 2 0.47855
chimesFF: 	3 3 3 3 2 2 0.47855
chimesFF: Read 4B parameters for quadruplets: 1 H N N N
chimesFF: 	0 0 1 0 1 1 -5.78504
chimesFF: 	0 1 0 1 0 1 -5.78504
chimesFF: 	1 0 0 1 1 0 -5.78504
chimesFF: 	0 0 1 0 1 2 1.45448
chimesFF: 	0 1 0 1 0 2 1.45448
chimesFF: 	0 0 1 0 2 1 1.45448
chimesFF: 	0 1 0 2 0 1 1.45448
chimesFF: 	1 0 0 1 2 0 1.45448
chimesFF: 	1 0 0 2 1 0 1.45448
chimesFF: 	0 0 1 0 1 3 0.73254
chimesFF: 	0 1 0 1 0 3 0.73254
chimesFF: 	0 0 1 0 3 1 0.73254
chimesFF: 	0 1 0 3 0 1 0.73254
chimesFF: 	1 0 0 1 3 0 0.73254
chimesFF: 	1 0 0 3 1 0 0.73254
chimesFF: 	0 0 1 1 0 0 -5.82802
chimesFF: 	0 1 0 0 1 0 -5.82802
chimesFF: 	1 0 0 0 0 1 -5.82802
chimesFF: 	0 0 1 1 0 3 -0.05226
chimesFF: 	0 1 0 0 1 3 -0.05226
chimesFF: 	0 0 1 1 3 0 -0.05226
chimesFF: 	0 1 0 3 1 0 -0.05226
chimesFF: 	1 0 0 0 3 1 -0.05226
chimesFF: 	1 0 0 3 0 1 -0.05226
chimesFF: 	0 0 1 2 0 3 1.09642
chimesFF: 	0 1 0 0 2 3 1.09642
chimesFF: 	0 0 1 2 3 0 1.09642
chimesFF: 	0 1 0 3 2 0 1.09642
chimesFF: 	1 0 0 0 3 2 1.09642
chimesFF: 	1 0 0 3 0 2 1.09642
chimesFF: 	0 0 1 2 1 2 0.75746
chimesFF: 	0 1 0 1 2 2 0.75746
chimesFF: 	0 0 1 2 2 1 0.75746
chimesFF: 	0 1 0 2 2 1 0.75746
chimesFF: 	1 0 0 1 2 2 0.75746
chimesFF: 	1 0 0 2 1 2 0.75746
chimesFF: 	0 0 1 2 2 3 -0.26850
chimesFF: 	0 1 0 2 2 3 -0.26850
chimesFF: 	0 0 1 2 3 2 -0.26850
chimesFF: 	0 1 0 3 2 2 -0.26850
chimesFF: 	1 0 0 2 3 2 -0.26850
chimesFF: 	1 0 0 3 2 2 -0.26850
chimesFF: 	0 0 1 3 0 1 2.79986
chimesFF: 	0 1 0 0 3 1 2.79986
chimesFF: 	0 0 1 3 1 0 2.79986
chimesFF: 	0 1 0 1 3 0 2.79986
chimesFF: 	1 0 0 0 1 3 2.79986
chimesFF: 	1 0 0 1 0 3 2.79986
chimesFF: 	0 0 1 3 0 2 0.03911
chimesFF: 	0 1 0 0 3 2 0.03911
chimesFF: 	0 0 1 3 2 0 0.03911
chimesFF: 	0 1 0 2 3 0 0.03911
chimesFF: 	1 0 0 0 2 3 0.03911
chimesFF: 	1 0 0 2 0 3 0.03911
chimesFF: 	0 0 1 3 0 3 -0.22526
chimesFF: 	0 1 0 0 3 3 -0.22526
chimesFF: 	0 0 1 3 3 0 -0.22526
chimesFF: 	0 1 0 3 3 0 -0.22526
chimesFF: 	1 0 0 0 3 3 -0.22526
chimesFF: 	1 0 0 3 0 3 -0.22526
chimesFF: 	0 0 1 3 1 3 -0.28713
chimesFF: 	0 1 0 1 3 3 -0.28713
chimesFF: 	0 0 1 3 3 1 -0.28713
chimesFF: 	0 1 0 3 3 1 -0.28713
chimesFF: 	1 0 0 1 3 3 -0.28713
chimesFF: 	1 0 0 3 1 3 -0.28713
chimesFF: 	0 0 1 3 3 3 0.35833
chimesFF: 	0 1 0 3 3 3 0.35833
chimesFF: 	1 0 0 3 3 3 0.35833
chimesFF: 	0 0 2 0 1 2 -1.78291
chimesFF: 	0 2 0 1 0 2 -1.78291
chimesFF: 	0 0 2 0 2 1 -1.78291
chimesFF: 	0 2 0 2 0 1 -1.78291
chimesFF: 	2 0 0 1 2 0 -1.78291
chimesFF: 	2 0 0 2 1 0 -1.78291
chimesFF: 	0 0 2 0 1 3 1.18724
chimesFF: 	0 2 0 1 0 3 1.18724
chimesFF: 	0 0 2 0 3 1 1.18724
chimesFF: 	0 2 0 3 0 1 1.18724
[...]
chimesFF: 	3 0 0 3 0 2 -0.27398
chimesFF: 	0 0 3 2 3 0 -0.27398
chimesFF: 	0 3 0 3 2 0 -0.27398
chimesFF: 	0 3 3 0 2 0 -0.27398
chimesFF: 	0 3 3 2 0 0 -0.27398
chimesFF: 	3 0 3 0 0 2 -0.27398
chimesFF: 	3 3 0 0 0 2 -0.27398
chimesFF: 	3 0 3 2 0 0 -0.27398
chimesFF: 	3 3 0 0 2 0 -0.27398
chimesFF: 	2 0 3 0 0 3 -0.27398
chimesFF: 	2 3 0 0 0 3 -0.27398
chimesFF: 	0 2 3 0 3 0 -0.27398
chimesFF: 	0 3 2 3 0 0 -0.27398
chimesFF: 	3 2 0 0 3 0 -0.27398
chimesFF: 	3 0 2 3 0 0 -0.27398
chimesFF: 	0 0 2 3 1 3 -2.10503
chimesFF: 	0 2 0 1 3 3 -2.10503
chimesFF: 	0 0 2 3 3 1 -2.10503
chimesFF: 	0 2 0 3 3 1 -2.10503
chimesFF: 	2 0 0 1 3 3 -2.10503
chimesFF: 	2 0 0 3 1 3 -2.10503
chimesFF: 	0 3 1 0 2 3 -2.10503
chimesFF: 	0 1 3 2 0 3 -2.10503
chimesFF: 	3 0 1 0 3 2 -2.10503
chimesFF: 	3 1 0 3 0 2 -2.10503
chimesFF: 	1 0 3 2 3 0 -2.10503
chimesFF: 	1 3 0 3 2 0 -2.10503
chimesFF: 	0 3 3 0 2 1 -2.10503
chimesFF: 	0 3 3 2 0 1 -2.10503
chimesFF: 	3 0 3 0 1 2 -2.10503
chimesFF: 	3 3 0 1 0 2 -2.10503
chimesFF: 	3 0 3 2 1 0 -2.10503
chimesFF: 	3 3 0 1 2 0 -2.10503
chimesFF: 	2 1 3 0 0 3 -2.10503
chimesFF: 	2 3 1 0 0 3 -2.10503
chimesFF: 	1 2 3 0 3 0 -2.10503
chimesFF: 	1 3 2 3 0 0 -2.10503
chimesFF: 	3 2 1 0 3 0 -2.10503
chimesFF: 	3 1 2 3 0 0 -2.10503
chimesFF: 	0 0 2 3 2 3 -1.93351
chimesFF: 	0 2 0 2 3 3 -1.93351
chimesFF: 	0 0 2 3 3 2 -1.93351
chimesFF: 	0 2 0 3 3 2 -1.93351
chimesFF: 	2 0 0 2 3 3 -1.93351
chimesFF: 	2 0 0 3 2 3 -1.93351
chimesFF: 	0 3 2 0 2 3 -1.93351
chimesFF: 	0 2 3 2 0 3 -1.93351
chimesFF: 	3 0 2 0 3 2 -1.93351
chimesFF: 	3 2 0 3 0 2 -1.93351
chimesFF: 	2 0 3 2 3 0 -1.93351
chimesFF: 	2 3 0 3 2 0 -1.93351
chimesFF: 	0 3 3 0 2 2 -1.93351
chimesFF: 	0 3 3 2 0 2 -1.93351
chimesFF: 	3 0 3 0 2 2 -1.93351
chimesFF: 	3 3 0 2 0 2 -1.93351
chimesFF: 	3 0 3 2 2 0 -1.93351
chimesFF: 	3 3 0 2 2 0 -1.93351
chimesFF: 	2 2 3 0 0 3 -1.93351
chimesFF: 	2 3 2 0 0 3 -1.93351
chimesFF: 	2 2 3 0 3 0 -1.93351
chimesFF: 	2 3 2 3 0 0 -1.93351
chimesFF: 	3 2 2 0 3 0 -1.93351
chimesFF: 	3 2 2 3 0 0 -1.93351
chimesFF: 	0 0 3 2 1 2 -1.19181
chimesFF: 	0 3 0 1 2 2 -1.19181
chimesFF: 	0 0 3 2 2 1 -1.19181
chimesFF: 	0 3 0 2 2 1 -1.19181
chimesFF: 	3 0 0 1 2 2 -1.19181
chimesFF: 	3 0 0 2 1 2 -1.19181
chimesFF: 	0 2 1 0 3 2 -1.19181
chimesFF: 	0 1 2 3 0 2 -1.19181
chimesFF: 	2 0 1 0 2 3 -1.19181
chimesFF: 	2 1 0 2 0 3 -1.19181
chimesFF: 	1 0 2 3 2 0 -1.19181
chimesFF: 	1 2 0 2 3 0 -1.19181
chimesFF: 	0 2 2 0 3 1 -1.19181
chimesFF: 	0 2 2 3 0 1 -1.19181
chimesFF: 	2 0 2 0 1 3 -1.19181
chimesFF: 	2 2 0 1 0 3 -1.19181
chimesFF: 	2 0 2 3 1 0 -1.19181
chimesFF: 	2 2 0 1 3 0 -1.19181
chimesFF: 	3 1 2 0 0 2 -1.19181
chimesFF: 	3 2 1 0 0 2 -1.19181
chimesFF: 	1 3 2 0 2 0 -1.19181
chimesFF: 	1 2 3 2 0 0 -1.19181
chimesFF: 	2 3 1 0 2 0 -1.19181
chimesFF: 	2 1 3 2 0 0 -1.19181
chimesFF: 	0 0 3 2 2 2 -0.19170
chimesFF: 	0 3 0 2 2 2 -0.19170
chimesFF: 	3 0 0 2 2 2 -0.19170
chimesFF: 	0 2 2 0 3 2 -0.19170
chimesFF: 	0 2 2 3 0 2 -0.19170
chimesFF: 	2 0 2 0 2 3 -0.19170
chimesFF: 	2 2 0 2 0 3 -0.19170
chimesFF: 	2 0 2 3 2 0 -0.19170
chimesFF: 	2 2 0 2 3 0 -0.19170
chimesFF: 	3 2 2 0 0 2 -0.19170
chimesFF: 	2 3 2 0 2 0 -0.19170
chimesFF: 	2 2 3 2 0 0 -0.19170
chimesFF: 	0 0 3 2 2 3 0.65998
chimesFF: 	0 3 0 2 2 3 0.65998
chimesFF: 	0 0 3 2 3 2 0.65998
chimesFF: 	0 3 0 3 2 2 0.65998
chimesFF: 	3 0 0 2 3 2 0.65998
chimesFF: 	3 0 0 3 2 2 0.65998
chimesFF: 	0 2 2 0 3 3 0.65998
chimesFF: 	0 2 2 3 0 3 0.65998
chimesFF: 	2 0 2 0 3 3 0.65998
chimesFF: 	2 2 0 3 0 3 0.65998
chimesFF: 	2 0 2 3 3 0 0.65998
chimesFF: 	2 2 0 3 3 0 0.65998
chimesFF: 	0 2 3 0 3 2 0.65998
chimesFF: 	0 3 2 3 0 2 0.65998
chimesFF: 	2 0 3 0 2 3 0.65998
chimesFF: 	2 3 0 2 0 3 0.65998
chimesFF: 	3 0 2 3 2 0 0.65998
chimesFF: 	3 2 0 2 3 0 0.65998
chimesFF: 	3 2 3 0 0 2 0.65998
chimesFF: 	3 3 2 0 0 2 0.65998
chimesFF: 	2 3 3 0 2 0 0.65998
chimesFF: 	2 3 3 2 0 0 0.65998
chimesFF: 	3 3 2 0 2 0 0.65998
chimesFF: 	3 2 3 2 0 0 0.65998
chimesFF: 	0 0 3 3 0 1 -0.16407
chimesFF: 	0 3 0 0 3 1 -0.16407
chimesFF: 	0 0 3 3 1 0 -0.16407
chimesFF: 	0 3 0 1 3 0 -0.16407
chimesFF: 	3 0 0 0 1 3 -0.16407
chimesFF: 	3 0 0 1 0 3 -0.16407
chimesFF: 	0 3 1 0 3 0 -0.16407
chimesFF: 	0 1 3 3 0 0 -0.16407
chimesFF: 	3 0 1 0 0 3 -0.16407
chimesFF: 	3 1 0 0 0 3 -0.16407
chimesFF: 	1 0 3 3 0 0 -0.16407
chimesFF: 	1 3 0 0 3 0 -0.16407
chimesFF: 	0 0 3 3 2 3 -1.28287
chimesFF: 	0 3 0 2 3 3 -1.28287
chimesFF: 	0 0 3 3 3 2 -1.28287
chimesFF: 	0 3 0 3 3 2 -1.28287
chimesFF: 	3 0 0 2 3 3 -1.28287
chimesFF: 	3 0 0 3 2 3 -1.28287
chimesFF: 	0 3 2 0 3 3 -1.28287
chimesFF: 	0 2 3 3 0 3 -1.28287
chimesFF: 	3 0 2 0 3 3 -1.28287
chimesFF: 	3 2 0 3 0 3 -1.28287
chimesFF: 	2 0 3 3 3 0 -1.28287
chimesFF: 	2 3 0 3 3 0 -1.28287
chimesFF: 	0 3 3 0 3 2 -1.28287
chimesFF: 	0 3 3 3 0 2 -1.28287
chimesFF: 	3 0 3 0 2 3 -1.28287
chimesFF: 	3 3 0 2 0 3 -1.28287
chimesFF: 	3 0 3 3 2 0 -1.28287
chimesFF: 	3 3 0 2 3 0 -1.28287
chimesFF: 	3 2 3 0 0 3 -1.28287
chimesFF: 	3 3 2 0 0 3 -1.28287
chimesFF: 	2 3 3 0 3 0 -1.28287
chimesFF: 	2 3 3 3 0 0 -1.28287
chimesFF: 	3 3 2 0 3 0 -1.28287
chimesFF: 	3 2 3 3 0 0 -1.28287
chimesFF: 	0 1 1 1 3 1 -2.14358
chimesFF: 	0 1 1 3 1 1 -2.14358
chimesFF: 	1 0 1 1 1 3 -2.14358
chimesFF: 	1 1 0 1 1 3 -2.14358
chimesFF: 	1 0 1 3 1 1 -2.14358
chimesFF: 	1 1 0 1 3 1 -2.14358
chimesFF: 	0 1 3 1 1 1 -2.14358
chimesFF: 	0 3 1 1 1 1 -2.14358
chimesFF: 	1 0 3 1 1 1 -2.14358
chimesFF: 	1 3 0 1 1 1 -2.14358
chimesFF: 	3 0 1 1 1 1 -2.14358
chimesFF: 	3 1 0 1 1 1 -2.14358
chimesFF: 	1 1 1 0 1 3 -2.14358
chimesFF: 	1 1 1 1 0 3 -2.14358
chimesFF: 	1 1 1 0 3 1 -2.14358
chimesFF: 	1 1 1 3 0 1 -2.14358
chimesFF: 	1 1 1 1 3 0 -2.14358
chimesFF: 	1 1 1 3 1 0 -2.14358
chimesFF: 	1 3 1 0 1 1 -2.14358
chimesFF: 	1 1 3 1 0 1 -2.14358
chimesFF: 	3 1 1 0 1 1 -2.14358
chimesFF: 	3 1 1 1 0 1 -2.14358
chimesFF: 	1 1 3 1 1 0 -2.14358
chimesFF: 	1 3 1 1 1 0 -2.14358
chimesFF: 	0 1 1 2 3 2 0.24266
chimesFF: 	0 1 1 3 2 2 0.24266
chimesFF: 	1 0 1 2 2 3 0.24266
chimesFF: 	1 1 0 2 2 3 0.24266
chimesFF: 	1 0 1 3 2 2 0.24266
chimesFF: 	1 1 0 2 3 2 0.24266
chimesFF: 	0 2 3 1 1 2 0.24266
chimesFF: 	0 3 2 1 1 2 0.24266
chimesFF: 	2 0 3 1 2 1 0.24266
chimesFF: 	2 3 0 2 1 1 0.24266
chimesFF: 	3 0 2 1 2 1 0.24266
chimesFF: 	3 2 0 2 1 1 0.24266
chimesFF: 	1 2 2 0 1 3 0.24266
chimesFF: 	1 2 2 1 0 3 0.24266
chimesFF: 	2 1 2 0 3 1 0.24266
chimesFF: 	2 2 1 3 0 1 0.24266
chimesFF: 	2 1 2 1 3 0 0.24266
chimesFF: 	2 2 1 3 1 0 0.24266
chimesFF: 	1 3 2 0 1 2 0.24266
chimesFF: 	1 2 3 1 0 2 0.24266
chimesFF: 	3 1 2 0 2 1 0.24266
chimesFF: 	3 2 1 2 0 1 0.24266
chimesFF: 	2 1 3 1 2 0 0.24266
chimesFF: 	2 3 1 2 1 0 0.24266
chimesFF: 	0 1 2 2 3 3 -0.55460
chimesFF: 	0 2 1 3 2 3 -0.55460
chimesFF: 	1 0 2 2 3 3 -0.55460
chimesFF: 	1 2 0 3 2 3 -0.55460
chimesFF: 	2 0 1 3 3 2 -0.55460
chimesFF: 	2 1 0 3 3 2 -0.55460
chimesFF: 	0 2 3 1 2 3 -0.55460
chimesFF: 	0 3 2 2 1 3 -0.55460
chimesFF: 	2 0 3 1 3 2 -0.55460
chimesFF: 	2 3 0 3 1 2 -0.55460
chimesFF: 	3 0 2 2 3 1 -0.55460
chimesFF: 	3 2 0 3 2 1 -0.55460
chimesFF: 	1 2 3 0 2 3 -0.55460
chimesFF: 	1 3 2 2 0 3 -0.55460
chimesFF: 	2 1 3 0 3 2 -0.55460
chimesFF: 	2 3 1 3 0 2 -0.55460
chimesFF: 	3 1 2 2 3 0 -0.55460
chimesFF: 	3 2 1 3 2 0 -0.55460
chimesFF: 	2 3 3 0 1 2 -0.55460
chimesFF: 	2 3 3 1 0 2 -0.55460
chimesFF: 	3 2 3 0 2 1 -0.55460
chimesFF: 	3 3 2 2 0 1 -0.55460
chimesFF: 	3 2 3 1 2 0 -0.55460
chimesFF: 	3 3 2 2 1 0 -0.55460
chimesFF: 	0 1 2 3 1 3 -0.47643
chimesFF: 	0 2 1 1 3 3 -0.47643
chimesFF: 	1 0 2 3 3 1 -0.47643
chimesFF: 	1 2 0 3 3 1 -0.47643
chimesFF: 	2 0 1 1 3 3 -0.47643
chimesFF: 	2 1 0 3 1 3 -0.47643
chimesFF: 	0 3 1 1 2 3 -0.47643
chimesFF: 	0 1 3 2 1 3 -0.47643
chimesFF: 	3 0 1 1 3 2 -0.47643
chimesFF: 	3 1 0 3 1 2 -0.47643
chimesFF: 	1 0 3 2 3 1 -0.47643
chimesFF: 	1 3 0 3 2 1 -0.47643
chimesFF: 	1 3 3 0 2 1 -0.47643
chimesFF: 	1 3 3 2 0 1 -0.47643
chimesFF: 	3 1 3 0 1 2 -0.47643
chimesFF: 	3 3 1 1 0 2 -0.47643
chimesFF: 	3 1 3 2 1 0 -0.47643
chimesFF: 	3 3 1 1 2 0 -0.47643
chimesFF: 	2 1 3 0 1 3 -0.47643
chimesFF: 	2 3 1 1 0 3 -0.47643
chimesFF: 	1 2 3 0 3 1 -0.47643
chimesFF: 	1 3 2 3 0 1 -0.47643
chimesFF: 	3 2 1 1 3 0 -0.47643
chimesFF: 	3 1 2 3 1 0 -0.47643
chimesFF: 	0 1 3 2 2 1 -1.80863
chimesFF: 	0 3 1 2 2 1 -1.80863
chimesFF: 	1 0 3 2 1 2 -1.80863
chimesFF: 	1 3 0 1 2 2 -1.80863
chimesFF: 	3 0 1 2 1 2 -1.80863
chimesFF: 	3 1 0 1 2 2 -1.80863
chimesFF: 	0 2 2 1 3 1 -1.80863
chimesFF: 	0 2 2 3 1 1 -1.80863
chimesFF: 	2 0 2 1 1 3 -1.80863
chimesFF: 	2 2 0 1 1 3 -1.80863
chimesFF: 	2 0 2 3 1 1 -1.80863
chimesFF: 	2 2 0 1 3 1 -1.80863
chimesFF: 	1 2 1 0 3 2 -1.80863
chimesFF: 	1 1 2 3 0 2 -1.80863
chimesFF: 	2 1 1 0 2 3 -1.80863
chimesFF: 	2 1 1 2 0 3 -1.80863
chimesFF: 	1 1 2 3 2 0 -1.80863
chimesFF: 	1 2 1 2 3 0 -1.80863
chimesFF: 	3 2 1 0 1 2 -1.80863
chimesFF: 	3 1 2 1 0 2 -1.80863
chimesFF: 	2 3 1 0 2 1 -1.80863
chimesFF: 	2 1 3 2 0 1 -1.80863
chimesFF: 	1 3 2 1 2 0 -1.80863
chimesFF: 	1 2 3 2 1 0 -1.80863
chimesFF: 	0 1 3 2 3 3 -0.32677
chimesFF: 	0 3 1 3 2 3 -0.32677
chimesFF: 	1 0 3 2 3 3 -0.32677
chimesFF: 	1 3 0 3 2 3 -0.32677
chimesFF: 	3 0 1 3 3 2 -0.32677
chimesFF: 	3 1 0 3 3 2 -0.32677
chimesFF: 	0 2 3 1 3 3 -0.32677
chimesFF: 	0 3 2 3 1 3 -0.32677
chimesFF: 	2 0 3 1 3 3 -0.32677
chimesFF: 	2 3 0 3 1 3 -0.32677
chimesFF: 	3 0 2 3 3 1 -0.32677
chimesFF: 	3 2 0 3 3 1 -0.32677
chimesFF: 	1 2 3 0 3 3 -0.32677
chimesFF: 	1 3 2 3 0 3 -0.32677
chimesFF: 	2 1 3 0 3 3 -0.32677
chimesFF: 	2 3 1 3 0 3 -0.32677
chimesFF: 	3 1 2 3 3 0 -0.32677
chimesFF: 	3 2 1 3 3 0 -0.32677
chimesFF: 	3 3 3 0 1 2 -0.32677
chimesFF: 	3 3 3 1 0 2 -0.32677
chimesFF: 	3 3 3 0 2 1 -0.32677
chimesFF: 	3 3 3 2 0 1 -0.32677
chimesFF: 	3 3 3 1 2 0 -0.32677
chimesFF: 	3 3 3 2 1 0 -0.32677
chimesFF: 	0 1 3 3 2 2 -0.29830
chimesFF: 	0 3 1 2 3 2 -0.29830
chimesFF: 	1 0 3 3 2 2 -0.29830
chimesFF: 	1 3 0 2 3 2 -0.29830
chimesFF: 	3 0 1 2 2 3 -0.29830
chimesFF: 	3 1 0 2 2 3 -0.29830
chimesFF: 	0 3 2 1 3 2 -0.29830
chimesFF: 	0 2 3 3 1 2 -0.29830
chimesFF: 	3 0 2 1 2 3 -0.29830
chimesFF: 	3 2 0 2 1 3 -0.29830
chimesFF: 	2 0 3 3 2 1 -0.29830
chimesFF: 	2 3 0 2 3 1 -0.29830
chimesFF: 	1 3 2 0 3 2 -0.29830
chimesFF: 	1 2 3 3 0 2 -0.29830
chimesFF: 	3 1 2 0 2 3 -0.29830
chimesFF: 	3 2 1 2 0 3 -0.29830
chimesFF: 	2 1 3 3 2 0 -0.29830
chimesFF: 	2 3 1 2 3 0 -0.29830
chimesFF: 	3 2 2 0 1 3 -0.29830
chimesFF: 	3 2 2 1 0 3 -0.29830
chimesFF: 	2 3 2 0 3 1 -0.29830
chimesFF: 	2 2 3 3 0 1 -0.29830
chimesFF: 	2 3 2 1 3 0 -0.29830
chimesFF: 	2 2 3 3 1 0 -0.29830
chimesFF: 	0 1 3 3 3 2 -0.08503
chimesFF: 	0 3 1 3 3 2 -0.08503
chimesFF: 	1 0 3 3 2 3 -0.08503
chimesFF: 	1 3 0 2 3 3 -0.08503
chimesFF: 	3 0 1 3 2 3 -0.08503
chimesFF: 	3 1 0 2 3 3 -0.08503
chimesFF: 	0 3 3 1 3 2 -0.08503
chimesFF: 	0 3 3 3 1 2 -0.08503
chimesFF: 	3 0 3 1 2 3 -0.08503
chimesFF: 	3 3 0 2 1 3 -0.08503
chimesFF: 	3 0 3 3 2 1 -0.08503
chimesFF: 	3 3 0 2 3 1 -0.08503
chimesFF: 	1 3 2 0 3 3 -0.08503
chimesFF: 	1 2 3 3 0 3 -0.08503
chimesFF: 	3 1 2 0 3 3 -0.08503
chimesFF: 	3 2 1 3 0 3 -0.08503
chimesFF: 	2 1 3 3 3 0 -0.08503
chimesFF: 	2 3 1 3 3 0 -0.08503
chimesFF: 	3 3 2 0 1 3 -0.08503
chimesFF: 	3 2 3 1 0 3 -0.08503
chimesFF: 	3 3 2 0 3 1 -0.08503
chimesFF: 	3 2 3 3 0 1 -0.08503
chimesFF: 	2 3 3 1 3 0 -0.08503
chimesFF: 	2 3 3 3 1 0 -0.08503
chimesFF: 	0 1 3 3 3 3 -0.32177
chimesFF: 	0 3 1 3 3 3 -0.32177
chimesFF: 	1 0 3 3 3 3 -0.32177
chimesFF: 	1 3 0 3 3 3 -0.32177
chimesFF: 	3 0 1 3 3 3 -0.32177
chimesFF: 	3 1 0 3 3 3 -0.32177
chimesFF: 	0 3 3 1 3 3 -0.32177
chimesFF: 	0 3 3 3 1 3 -0.32177
chimesFF: 	3 0 3 1 3 3 -0.32177
chimesFF: 	3 3 0 3 1 3 -0.32177
chimesFF: 	3 0 3 3 3 1 -0.32177
chimesFF: 	3 3 0 3 3 1 -0.32177
chimesFF: 	1 3 3 0 3 3 -0.32177
chimesFF: 	1 3 3 3 0 3 -0.32177
chimesFF: 	3 1 3 0 3 3 -0.32177
chimesFF: 	3 3 1 3 0 3 -0.32177
chimesFF: 	3 1 3 3 3 0 -0.32177
chimesFF: 	3 3 1 3 3 0 -0.32177
chimesFF: 	3 3 3 0 1 3 -0.32177
chimesFF: 	3 3 3 1 0 3 -0.32177
chimesFF: 	3 3 3 0 3 1 -0.32177
chimesFF: 	3 3 3 3 0 1 -0.32177
chimesFF: 	3 3 3 1 3 0 -0.32177
chimesFF: 	3 3 3 3 1 0 -0.32177
chimesFF: 	0 2 2 2 3 2 0.40087
chimesFF: 	0 2 2 3 2 2 0.40087
chimesFF: 	2 0 2 2 2 3 0.40087
chimesFF: 	2 2 0 2 2 3 0.40087
chimesFF: 	2 0 2 3 2 2 0.40087
chimesFF: 	2 2 0 2 3 2 0.40087
chimesFF: 	0 2 3 2 2 2 0.40087
chimesFF: 	0 3 2 2 2 2 0.40087
chimesFF: 	2 0 3 2 2 2 0.40087
chimesFF: 	2 3 0 2 2 2 0.40087
chimesFF: 	3 0 2 2 2 2 0.40087
chimesFF: 	3 2 0 2 2 2 0.40087
chimesFF: 	2 2 2 0 2 3 0.40087
chimesFF: 	2 2 2 2 0 3 0.40087
chimesFF: 	2 2 2 0 3 2 0.40087
chimesFF: 	2 2 2 3 0 2 0.40087
chimesFF: 	2 2 2 2 3 0 0.40087
chimesFF: 	2 2 2 3 2 0 0.40087
chimesFF: 	2 3 2 0 2 2 0.40087
chimesFF: 	2 2 3 2 0 2 0.40087
chimesFF: 	3 2 2 0 2 2 0.40087
chimesFF: 	3 2 2 2 0 2 0.40087
chimesFF: 	2 2 3 2 2 0 0.40087
chimesFF: 	2 3 2 2 2 0 0.40087
chimesFF: 	0 2 3 3 3 1 0.24816
chimesFF: 	0 3 2 3 3 1 0.24816
chimesFF: 	2 0 3 3 1 3 0.24816
chimesFF: 	2 3 0 1 3 3 0.24816
chimesFF: 	3 0 2 3 1 3 0.24816
chimesFF: 	3 2 0 1 3 3 0.24816
chimesFF: 	0 3 3 2 3 1 0.24816
chimesFF: 	0 3 3 3 2 1 0.24816
chimesFF: 	3 0 3 2 1 3 0.24816
chimesFF: 	3 3 0 1 2 3 0.24816
chimesFF: 	3 0 3 3 1 2 0.24816
chimesFF: 	3 3 0 1 3 2 0.24816
chimesFF: 	2 3 1 0 3 3 0.24816
chimesFF: 	2 1 3 3 0 3 0.24816
chimesFF: 	3 2 1 0 3 3 0.24816
chimesFF: 	3 1 2 3 0 3 0.24816
chimesFF: 	1 2 3 3 3 0 0.24816
chimesFF: 	1 3 2 3 3 0 0.24816
chimesFF: 	3 3 1 0 2 3 0.24816
chimesFF: 	3 1 3 2 0 3 0.24816
chimesFF: 	3 3 1 0 3 2 0.24816
chimesFF: 	3 1 3 3 0 2 0.24816
chimesFF: 	1 3 3 2 3 0 0.24816
chimesFF: 	1 3 3 3 2 0 0.24816
chimesFF: 	0 2 3 3 3 2 0.21034
chimesFF: 	0 3 2 3 3 2 0.21034
chimesFF: 	2 0 3 3 2 3 0.21034
chimesFF: 	2 3 0 2 3 3 0.21034
chimesFF: 	3 0 2 3 2 3 0.21034
chimesFF: 	3 2 0 2 3 3 0.21034
chimesFF: 	0 3 3 2 3 2 0.21034
chimesFF: 	0 3 3 3 2 2 0.21034
chimesFF: 	3 0 3 2 2 3 0.21034
chimesFF: 	3 3 0 2 2 3 0.21034
chimesFF: 	3 0 3 3 2 2 0.21034
chimesFF: 	3 3 0 2 3 2 0.21034
chimesFF: 	2 3 2 0 3 3 0.21034
chimesFF: 	2 2 3 3 0 3 0.21034
chimesFF: 	3 2 2 0 3 3 0.21034
chimesFF: 	3 2 2 3 0 3 0.21034
chimesFF: 	2 2 3 3 3 0 0.21034
chimesFF: 	2 3 2 3 3 0 0.21034
chimesFF: 	3 3 2 0 2 3 0.21034
chimesFF: 	3 2 3 2 0 3 0.21034
chimesFF: 	3 3 2 0 3 2 0.21034
chimesFF: 	3 2 3 3 0 2 0.21034
chimesFF: 	2 3 3 2 3 0 0.21034
chimesFF: 	2 3 3 3 2 0 0.21034
chimesFF: Built the following 4-body pair "slow" map:
chimesFF: 	4 HHHHHHHHHHHH
chimesFF: 	3 HHHHNHHHNHNH
chimesFF: 	3 HHNHHHNHHHNH
chimesFF: 	2 HHNHNHNHNHNN
chimesFF: 	3 NHHHHHNHNHHH
chimesFF: 	2 NHHHNHNHNNNH
chimesFF: 	2 NHNHHHNNNHNH
chimesFF: 	3 NHNHNHHHHHHH
chimesFF: 	1 NHNHNHNNNNNN
chimesFF: 	2 NHNHNNHHNHNH
chimesFF: 	2 NHNNNHNHHHNH
chimesFF: 	1 NHNNNNNHNHNN
chimesFF: 	2 NNNHNHNHNHHH
chimesFF: 	1 NNNHNNNHNNNH
chimesFF: 	1 NNNNNHNNNHNH
chimesFF: 	0 NNNNNNNNNNNN
chimesFF: Built the following 4-body pair "fast" map:
chimesFF: 	0 0
chimesFF: 	1 1
chimesFF: 	2 1
chimesFF: 	3 2
chimesFF: 	4 1
chimesFF: 	5 2
chimesFF: 	6 2
chimesFF: 	7 3
chimesFF: 	8 1
chimesFF: 	9 2
chimesFF: 	10 2
chimesFF: 	11 3
chimesFF: 	12 2
chimesFF: 	13 3
chimesFF: 	14 3
chimesFF: 	15 4
chimesFF: Set the following special 4-body outer cutoffs: 
chimesFF: 	0 4.00000 4.00000 4.00000 4.00000 4.00000 4.00000
chimesFF: 	1 4.00000 4.00000 4.00000 4.00000 4.00000 4.00000
chimesFF: 	2 4.00000 4.00000 4.00000 4.00000 4.00000 4.00000
chimesFF: 	3 4.00000 4.00000 4.00000 4.00000 4.00000 4.00000
chimesFF: 	4 4.00000 4.00000 4.00000 4.00000 4.00000 4.00000
chimesFF: 	Setting 3-body max cutoff to: 5.00000
chimesFF: 	Setting 4-body max cutoff to: 4.00000
WARNING: No fixes defined, atoms won't move (../verlet.cpp:54)
Neighbor list info ...
  update every 1 steps, delay 0 steps, check yes
  max neighbors/atom: 2000, page size: 100000
  master list distance cutoff = 9
  ghost atom cutoff = 9
  binsize = 4.5, bins = 4 4 4
  1 neighbor lists, perpetual/occasional/extra = 1 0 0
  (1) pair chimesFF, perpetual
      attributes: full, newton on, ghost
      pair build: full/bin/ghost
      stencil: full/ghost/bin/3d
      bin: standard
Setting up Verlet run ...
  Unit style    : real
  Current step  : 0
  Time step     : 0.2
Updating chimesFF neighbor lists...
	Rank 0 3-body list size: 411029
	Rank 0 4-body list size: 564057
	...update complete
Made it between ifs
neighbor_size: 
564057
Made it to ghost atoms check___2
Per MPI rank memory allocation (min/avg/max) = 9.012 | 9.012 | 9.012 Mbytes
Step Time KinEng PotEng TotEng Temp Press Pxx Pyy Pzz Pxy Pxz Pyz Volume 
       0              0.00000              0.00000         -59416.60732         -59416.60732              0.00000         217747.21845         223136.97393         209425.37689         220679.30453         -20710.00983          -1864.11659         -13650.88891           4492.12500 
Made it between ifs
neighbor_size: 
564057
Made it to ghost atoms check___2
       1              0.20000              0.00000         -59416.60732         -59416.60732              0.00000         217747.21845         223136.97393         209425.37689         220679.30453         -20710.00983          -1864.11659         -13650.88891           4492.12500 
Made it between ifs
neighbor_size: 
564057
Made it to ghost atoms check___2
       2              0.40000              0.00000         -59416.60732         -59416.60732              0.00000         217747.21845         223136.97393         209425.37689         220679.30453         -20710.00983          -1864.11659         -13650.88891           4492.12500 
Made it between ifs
neighbor_size: 
564057
Made it to ghost atoms check___2
       3              0.60000              0.00000         -59416.60732         -59416.60732              0.00000         217747.21845         223136.97393         209425.37689         220679.30453         -20710.00983          -1864.11659         -13650.88891           4492.12500 
Made it between ifs
neighbor_size: 
564057
Made it to ghost atoms check___2
       4              0.80000              0.00000         -59416.60732         -59416.60732              0.00000         217747.21845         223136.97393         209425.37689         220679.30453         -20710.00983          -1864.11659         -13650.88891           4492.12500 
Made it between ifs
neighbor_size: 
564057
Made it to ghost atoms check___2
       5              1.00000              0.00000         -59416.60732         -59416.60732              0.00000         217747.21845         223136.97393         209425.37689         220679.30453         -20710.00983          -1864.11659         -13650.88891           4492.12500 
Made it between ifs
neighbor_size: 
564057
Made it to ghost atoms check___2
       6              1.20000              0.00000         -59416.60732         -59416.60732              0.00000         217747.21845         223136.97393         209425.37689         220679.30453         -20710.00983          -1864.11659         -13650.88891           4492.12500 
Loop time of 24.7627 on 1 procs for 6 steps with 512 atoms

Performance: 0.004 ns/day, 5732.110 hours/ns, 0.242 timesteps/s
99.5% CPU use with 1 MPI tasks x no OpenMP threads

MPI task timing breakdown:
Section |  min time  |  avg time  |  max time  |%varavg| %total
---------------------------------------------------------------
Pair    | 24.758     | 24.758     | 24.758     |   0.0 | 99.98
Neigh   | 0          | 0          | 0          |   0.0 |  0.00
Comm    | 0.00016832 | 0.00016832 | 0.00016832 |   0.0 |  0.00
Output  | 0.0047281  | 0.0047281  | 0.0047281  |   0.0 |  0.02
Modify  | 1.1683e-05 | 1.1683e-05 | 1.1683e-05 |   0.0 |  0.00
Other   |            | 6.485e-05  |            |       |  0.00

Nlocal:        512.000 ave         512 max         512 min
Histogram: 1 0 0 0 0 0 0 0 0 0
Nghost:        4120.00 ave        4120 max        4120 min
Histogram: 1 0 0 0 0 0 0 0 0 0
Neighs:        0.00000 ave           0 max           0 min
Histogram: 1 0 0 0 0 0 0 0 0 0
FullNghs:     177730.0 ave      177730 max      177730 min
Histogram: 1 0 0 0 0 0 0 0 0 0

Total # of neighbors = 177730
Ave neighs/atom = 347.12891
Neighbor list builds = 0
Dangerous builds = 0
Total wall time: 0:00:29
