ITEM: TIMESTEP
0
ITEM: NUMBER OF ATOMS
512
ITEM: BOX BOUNDS xy xz yz pp pp pp
0.0000000000000000e+00 1.6500000000000000e+01 0.0000000000000000e+00
0.0000000000000000e+00 1.6500000000000000e+01 0.0000000000000000e+00
0.0000000000000000e+00 1.6500000000000000e+01 0.0000000000000000e+00
ITEM: ATOMS element xu yu zu fx fy fz
H 8.39052 3.36462 14.2841 -71.1491 -86.503 19.3728
H 13.7077 9.46225 4.37169 -50.393 53.1053 -99.5836
H 2.89886 6.52303 11.2373 25.7584 -45.571 10.5837
H 0.89108 15.5662 9.83529 -7.76744 -18.0168 48.0689
H 14.4606 9.82248 5.68186 -16.7918 -50.015 -22.4558
H 13.6067 15.6003 14.2205 43.6037 -9.07221 -31.1706
H 16.2565 13.9502 5.74116 -32.417 10.5635 -6.42565
H 10.0574 12.1775 11.0789 -15.2995 -11.0609 -6.82868
H 11.1366 11.5313 15.7896 40.1325 -13.2361 -2.18149
H 2.49878 0.09094 11.2195 -12.2569 39.362 33.3908
H 9.32231 1.73089 2.56565 38.3076 -197.68 -161.916
H 5.8465 12.6704 4.81777 1.87426 -37.4577 10.8154
H 16.4013 15.7128 13.0993 -13.0294 320.041 88.5442
H 16.2915 6.99808 14.4606 33.5506 46.1359 -37.7
H 2.38442 12.4249 12.6615 22.4069 -50.1813 -39.8366
H 1.3452 7.44228 8.73221 -49.6849 10.7081 -18.2988
H 1.59766 3.72829 6.16807 29.9941 -87.6288 -75.675
H 1.01954 14.124 9.03162 46.3733 -81.1898 10.3001
H 8.03782 8.46061 14.4609 -52.0061 -64.8119 -25.3085
H 4.35078 3.85727 3.19838 -94.733 -33.1683 20.4226
H 1.42557 12.5111 9.46911 -65.4708 -85.3743 18.3196
H 13.8873 7.67122 2.54583 -17.9935 -29.434 40.7378
H 5.94197 15.872 15.7118 66.157 31.0324 -20.2268
H 15.9112 2.46852 15.956 -9.949 23.182 -4.40424
H 0.76326 9.52484 2.72585 -33.8569 -0.384814 -4.65191
H 7.12025 11.6017 5.10612 -29.3344 27.4639 37.6146
H 0.73836 14.604 13.1198 44.4368 -32.1595 10.1804
H 7.7937 7.96487 6.33189 5.66508 -41.5748 4.14687
H 5.52571 4.02804 13.6431 -128.259 -17.4117 -6.38224
H 16.1614 14.6824 10.752 -23.1958 8.90871 2.9471
H 0.05049 1.50626 2.067 62.9288 37.8354 -41.5604
H 5.6002 13.7953 9.32834 66.0745 60.6397 55.0423
H 14.1693 4.81321 4.07355 -17.8451 10.3847 38.8892
H 10.8864 7.91471 15.4951 -53.6454 57.6721 6.27998
H 12.3518 6.92327 3.24911 -11.2908 8.36924 -3.78504
H 2.76866 13.9187 11.8404 -10.2588 -23.2351 43.8823
H 7.05113 3.2591 13.3717 -7.66859 -4.27124 22.2972
H 1.10421 14.8967 3.86609 24.7419 -48.0944 5.32371
H 0.1367 8.3478 14.881 -38.6122 97.3485 57.287
H 8.14878 10.0352 13.6622 14.8001 -27.5458 12.6719
H 2.33224 13.2723 9.48984 152.992 61.409 61.6941
H 7.1819 15.3448 9.85141 -62.8101 -43.6651 -20.6763
H 10.4977 12.7173 14.7632 -35.4962 -64.9265 2.68973
H 13.83 7.89798 0.69573 -10.3556 -19.3723 -53.802
H 4.44825 1.38172 3.07601 -15.8218 4.58947 18.5778
H 13.2817 4.2786 11.7143 -15.5916 64.3576 26.0581
H 8.91235 2.90497 2.63877 -53.1484 113.127 -21.3445
H 1.26072 1.636 2.94598 26.1588 3.27103 -15.5603
H 14.3014 10.9858 2.10232 -2.83311 8.93204 -7.45355
H 1.37403 13.5034 6.80669 136.155 152.189 77.8779
H 11.3733 1.41944 14.5514 91.8424 -24.9328 14.0987
H 1.81851 1.6129 1.36068 -44.3002 6.65525 33.4414
H 11.941 9.56598 10.2794 -1.99643 -58.6604 -64.4253
H 2.46034 3.12043 3.80191 53.2343 56.6603 -28.8505
H 5.48533 10.6705 2.20196 -19.5844 17.9577 19.8957
H 7.31495 2.59277 12.4773 -13.1126 -32.8057 -3.48203
H 2.21623 7.41174 10.4834 -37.6075 118.571 -37.2708
H 8.8554 6.47159 6.29558 -76.5306 47.0252 19.6992
H 6.25785 4.50573 15.5172 -124.692 -29.2309 116.563
H 6.3661 6.37496 15.3313 -5.93312 19.9531 -0.814755
H 1.54387 13.5833 4.92061 -26.0525 13.7445 -41.3597
H 0.57192 8.57592 7.72202 23.4439 -12.6087 -12.8269
H 1.95401 13.5517 13.4123 -71.7296 73.7679 96.6259
H 13.3043 1.83875 14.5692 -25.0926 -9.28941 15.7
H 14.9103 14.2812 4.60683 46.1946 -38.2867 15.9441
H 9.07129 16.1963 4.58181 -2.3916 -42.8027 2.89456
H 0.48389 8.87123 1.27906 4.22121 -23.6239 -41.02
H 13.595 10.0406 10.9302 90.4338 -125.381 -124.01
H 13.61 5.85946 12.5334 56.8837 -18.4879 -12.3035
H 5.52752 11.684 6.30301 62.1334 -6.49288 -58.4421
H 1.31768 2.40262 4.69973 -24.4642 13.6663 -17.3653
H 10.1868 6.92472 7.64379 30.6542 22.7479 -15.2589
H 12.806 16.0547 2.63492 -31.5744 -15.5563 -34.8689
H 2.65223 1.14448 12.6983 51.5923 2.64456 88.6488
H 12.1979 1.62254 13.5053 -5.12854 32.1326 -115.373
H 14.2691 13.834 2.10405 4.05666 -0.125856 7.40239
H 13.8075 6.37439 3.82382 6.55442 -35.7924 -51.4452
H 7.1626 6.34428 5.84873 36.1678 59.2155 62.3101
H 13.3144 9.23666 2.11669 27.0054 -16.08 -26.0011
H 10.5783 2.50104 3.59048 -97.1242 -16.9122 -13.9873
H 5.97525 5.88156 0.91211 -4.93864 -89.1323 -25.1725
H 2.99471 2.56746 5.30158 -64.6387 0.577083 25.626
H 3.6636 0.07759 3.43999 -24.5858 -55.08 -1.65749
H 1.13889 7.20809 15.0543 24.3783 20.7282 -19.7856
H 1.23218 14.128 11.0176 -31.4213 56.8062 -16.1802
H 8.68251 16.4619 16.4298 -10.8538 -38.8804 -2.41865
H 6.55874 15.5012 14.346 26.764 -2.61858 24.74
H 2.48728 2.83073 14.9081 1.16841 98.7931 -34.6819
H 16.2375 8.26664 9.03262 26.3484 -64.3485 -17.65
H 16.2726 9.50628 9.41529 77.7691 80.298 24.1898
H 15.5931 14.114 13.3218 61.5674 75.9815 -31.118
H 12.2876 5.81186 12.4358 -44.7303 -53.806 -34.1278
H 2.46307 3.60119 0.06374 61.1149 50.3915 76.4536
H 2.86496 6.05993 9.65897 71.0011 -76.2864 -116.373
H 9.33645 7.54159 15.326 21.7146 24.5961 38.1912
H 5.78821 15.9337 9.05078 10.9342 -75.3771 17.5304
H 8.85721 1.93882 3.96158 -96.8953 -48.9896 131.794
H 6.13577 4.23301 1.2247 74.699 -71.5953 63.6729
H 0.88902 16.0141 1.62031 -3.66727 27.9184 12.322
H 2.32348 1.77304 11.3543 -13.1583 -24.3693 6.29529
H 1.7531 6.5064 2.89008 -20.9184 26.225 6.98355
H 6.46822 1.04745 14.2325 -15.3566 5.76806 -1.17811
H 0.6495 13.4635 3.46675 -44.2841 -37.7043 -27.959
H 13.4405 7.45657 4.23143 18.1649 111.182 103.001
H 14.5053 14.7137 5.88864 45.1493 -10.6298 47.4277
H 6.56403 6.04564 13.6782 13.6448 29.1701 31.1421
H 4.72564 4.94063 1.30213 30.9835 -29.1934 -34.2252
H 1.33535 1.98488 6.35584 60.6556 33.6485 -54.1709
H 5.52188 11.646 0.48007 10.0619 2.94844 -68.1889
H 13.1909 6.32589 10.6134 15.7063 -6.87505 10.2632
H 15.5919 5.45804 13.723 -15.5787 -3.2704 -0.534957
H 14.0468 16.0984 3.44478 13.1374 50.4303 -9.43769
H 9.82648 11.1714 15.299 -108.642 -121.544 -39.9959
H 12.3729 12.5972 10.7993 12.3882 -1.56625 7.4204
H 6.31784 12.9744 6.09627 60.9303 93.54 67.4005
H 4.16143 11 8.23409 -10.837 17.2474 27.2602
H 2.83925 1.59473 3.32196 -12.7515 -16.8255 -21.8181
H 5.11799 9.16769 1.84519 37.2977 -93.5925 -0.819195
H 15.2716 8.67183 10.5756 -5.30746 -9.47119 3.68946
H 2.09143 10.4451 0.25756 -14.227 2.87959 11.6264
H 3.20184 5.53134 2.39356 95.3925 31.329 2.50958
H 14.9928 9.11052 8.6642 -17.3887 7.69063 78.392
H 13.3718 6.08881 5.82874 -54.998 27.1558 -45.8686
H 10.1505 12.5537 16.2525 -45.6255 13.6469 56.8071
H 3.20775 4.83097 3.91787 -22.5616 -41.3962 12.1741
H 13.1541 8.47078 7.93199 -14.8498 -27.561 55.0138
H 7.0255 14.9507 8.26684 -34.6319 -27.7423 35.1146
H 4.35682 10.1043 10.0411 50.0601 7.37914 -19.5782
N 16.3591 14.9084 12.8611 -81.5631 -361.148 -74.994
N 13.9382 13.9758 11.3679 10.1787 -30.7695 12.6877
N 15.2023 5.08544 11.2139 19.0485 -7.65449 -5.52752
N 7.45164 10.1477 9.10516 -13.889 1.30313 11.7945
N 0.13619 9.90047 11.872 -5.59371 10.9867 -17.0215
N 0.18598 15.2987 1.59108 -65.3843 -42.9951 45.387
N 12.4633 11.859 4.29829 -59.6757 -24.8352 159.638
N 6.74162 8.02834 0.85389 14.7504 -73.055 31.5792
N 15.2259 14.0049 5.59677 -43.0735 48.7183 -43.3938
N 15.7225 14.4129 8.04347 0.165707 -21.0754 -3.11288
N 14.307 2.90116 12.2619 20.2927 -63.8133 16.7668
N 8.32482 8.0698 3.90147 17.1331 -56.8343 22.1082
N 13.9382 9.0412 5.16901 30.4186 -23.167 108.116
N 7.72224 8.03604 11.9027 10.3062 3.01292 -15.5747
N 3.68373 13.4494 4.50322 2.71439 63.88 -71.4232
N 4.21828 4.06102 11.1931 -31.0582 12.1869 3.72963
N 3.56514 4.42062 14.6333 -40.7922 -33.8469 18.3454
N 7.02721 10.873 16.4394 -9.20299 -43.4599 -48.2418
N 13.8221 11.8796 1.82843 -20.4577 -2.28778 -0.189042
N 7.33927 0.83879 14.6837 28.3126 -123.381 77.1805
N 10.6776 3.90502 5.97571 -6.09124 34.8089 21.2289
N 11.707 15.9957 12.3992 -93.52 12.8172 -37.8117
N 3.0891 9.95247 14.6588 -3.73501 16.5447 -71.9719
N 6.35414 14.8976 9.15497 54.5979 29.7581 107.506
N 13.8194 15.9269 8.90221 -19.2603 -6.52208 -59.1228
N 11.2127 13.2947 7.25591 18.6571 45.5359 -20.9145
N 16.4082 4.98968 5.8995 -19.3171 -30.9007 -9.95551
N 15.452 11.6561 10.2584 -68.6009 -2.92475 22.3255
N 5.56119 12.753 3.27164 33.0448 -97.9116 -44.6839
N 1.64604 13.218 8.87807 -35.9599 81.1503 -81.2674
N 5.61607 4.76538 0.68191 -79.7064 181.041 -8.716
N 12.6508 6.88869 14.4257 -73.1433 -5.09623 -91.5429
N 7.48374 1.85473 16.4735 30.1721 -5.62354 -14.5757
N 9.24424 2.27395 3.23673 199.801 159.599 72.1342
N 14.2353 8.84885 1.62368 -85.1757 23.1784 32.0885
N 9.56163 0.03352 10.6357 -18.6474 -7.22719 -28.6178
N 14.5191 13.2902 14.259 4.44996 -109.996 41.0719
N 14.5732 13.9649 16.3508 132.334 -5.87003 -2.27202
N 1.93838 4.80027 1.38794 76.6965 6.75945 14.0637
N 2.51567 7.22267 0.57212 -74.0897 28.5835 238.746
N 1.14987 10.0098 0.16111 12.3867 5.76931 -18.579
N 5.67803 0.10577 1.78703 -72.2268 -135.495 -13.6137
N 7.56878 10.7191 11.9993 39.2334 -18.5877 -35.0626
N 16.1615 4.18381 2.72271 74.9918 -89.1292 108.163
N 5.263 5.11033 3.74152 183.322 135.621 -25.1469
N 9.27624 8.45699 10.0757 3.78839 0.237684 -53.5818
N 11.6268 12.5177 11.4855 7.46561 -7.48427 31.5386
N 1.0662 2.02906 2.0092 1.31806 -81.0607 11.5362
N 6.9738 12.975 11.4773 -158.099 -47.0976 68.1926
N 0.74497 0.6133 15.854 -21.6865 -36.6543 62.4514
N 13.3029 7.15383 3.37697 71.771 -26.6162 -115.595
N 9.47457 11.6683 4.46918 97.3156 28.6907 -100.091
N 8.33871 16.0304 0.89866 1.10106 -26.2527 -58.5653
N 7.36668 1.76685 11.8472 83.043 54.7956 -43.9637
N 2.36057 8.2033 3.68007 29.8074 -40.9268 -16.2268
N 8.84388 0.28931 13.4403 -184.411 -29.5262 -9.90913
N 1.88751 2.65658 5.47713 -0.733137 34.0223 160.871
N 1.65165 5.97876 6.35739 112.046 -10.7279 -179.106
N 1.67446 10.0126 9.33825 -159.923 -81.8785 58.6448
N 8.82078 14.4025 15.5198 99.4269 132.165 -40.752
N 6.32223 4.50384 11.4261 15.0002 -46.2761 -161.869
N 2.94997 15.8473 14.6 31.0544 -51.482 -62.1264
N 13.5754 1.85233 8.38891 -52.6395 110.969 99.7332
N 8.17115 10.8362 6.4176 49.63 -63.8555 46.2924
N 5.60587 13.413 7.47317 31.916 -36.0148 -57.9441
N 3.61418 1.03027 3.59828 31.9755 46.5032 -23.505
N 10.7781 7.37936 6.87514 -25.7583 -54.3111 25.0406
N 9.29104 3.43791 13.8867 -3.14171 3.09382 -15.4061
N 8.35808 9.35765 14.4837 -152.582 71.0855 -79.691
N 10.5309 2.41549 16.1977 -45.9339 -22.5108 519.511
N 5.54391 5.2739 6.34147 117.685 172.829 2.13345
N 6.26654 4.08044 10.3313 24.7856 65.6974 153.011
N 3.82902 12.5022 15.8225 -65.0735 -33.8332 -39.5942
N 6.43534 3.99824 13.6112 136.734 73.9186 98.2967
N 13.045 4.80949 7.27877 26.489 26.3539 55.636
N 15.0399 11.7716 12.4976 -45.7493 -38.0732 -5.67536
N 10.9971 15.038 0.38595 52.5729 72.3466 -72.8793
N 14.8556 10.1535 15.1371 -19.3622 2.23613 -56.8638
N 8.16565 15.4634 7.66231 163.323 77.63 25.7591
N 11.4213 3.07114 12.3359 -182.313 62.1304 119.142
N 2.84044 7.14931 16.0717 69.5405 -32.8952 -240.482
N 13.665 15.2244 8.03479 -18.3909 37.1196 22.7041
N 12.218 2.76436 11.6945 127.151 2.70512 -117.074
N 4.64579 8.0959 2.9662 -51.5935 -188.808 -114.578
N 0.51413 1.80806 7.75901 -53.4177 -14.9882 106.499
N 14.9789 4.61819 13.7213 0.201268 -6.69227 3.66275
N 13.0069 15.3228 5.43189 25.1074 -25.6716 -102.801
N 0.84271 2.90577 13.3381 -42.4205 -39.7073 -56.9505
N 0.57167 6.87932 11.255 -4.78804 58.8735 0.19819
N 8.24743 13.364 5.87497 20.0363 -191.516 370.874
N 4.96352 12.2824 10.962 -2.47838 23.8753 -30.2455
N 9.68666 1.85549 6.24884 -101.066 -51.0785 -55.1829
N 5.14136 7.47344 15.5223 3.4047 19.9208 5.45619
N 5.35424 1.21295 10.1776 -52.1287 -12.7801 18.7966
N 8.59405 0.45977 1.50245 14.0205 55.5577 65.8011
N 11.2518 6.18017 2.71579 -60.9762 -53.1984 -5.30516
N 5.15664 2.3444 5.79678 -1.66889 -74.0109 -40.8246
N 0.45568 5.26589 15.1021 53.9285 191.51 -61.7332
N 10.0638 15.8004 4.49886 35.8972 97.031 -11.9512
N 15.5027 2.38149 6.40152 7.52862 -0.233119 -34.3817
N 2.30576 5.75205 2.5764 -70.8639 -90.7696 -50.069
N 0.61291 14.908 10.6196 64.3542 -17.979 -23.0252
N 14.0233 3.18496 2.88563 17.5205 -20.8054 -26.2963
N 12.5295 1.22128 14.2772 -35.9035 -1.99271 77.1369
N 6.98987 15.8711 15.2621 -83.0267 130.067 -41.7731
N 0.90459 4.58604 8.05495 -24.013 8.9455 -2.55121
N 7.19466 15.9108 12.0268 102.913 9.88904 -139.307
N 0.31786 7.22429 3.69925 -132.438 -34.1331 -74.047
N 10.2656 11.9327 15.5184 90.1585 115.717 -16.7958
N 4.15939 5.31544 14.4027 35.1512 52.4682 -5.24388
N 6.87886 8.02132 12.6152 -29.3416 -5.51826 20.8051
N 5.93965 9.68837 4.73706 -93.9704 46.1677 -20.7847
N 8.35666 5.72209 3.46962 68.4323 -67.6669 19.6207
N 2.42712 3.36364 10.2934 67.2602 -81.2369 12.7261
N 13.2795 2.94229 6.24547 -58.3205 -169.534 -102.075
N 15.8106 16.1737 15.3841 9.7441 -76.8677 69.341
N 1.8554 9.17203 3.82996 5.09371 -2.01471 11.35
N 15.434 4.27664 10.4883 1.13528 -29.3544 -14.6408
N 2.51177 6.55231 10.3196 -38.501 2.41481 124.016
N 10.0761 9.55399 12.56 84.1398 83.0389 -163.006
N 11.3025 9.49722 1.90924 -138.963 17.0316 39.4756
N 10.608 11.2525 8.59798 -47.7761 83.5309 -4.50989
N 13.2068 7.18353 8.62995 23.6285 -17.6021 102.482
N 4.36986 7.14176 2.25128 61.7848 161.568 118.954
N 10.2604 11.9356 3.65391 -105.797 -33.5331 95.4728
N 11.9335 4.84927 16.4171 -43.3588 98.0751 18.0206
N 5.87213 11.6313 3.03625 2.06524 105.457 4.50961
N 10.5163 9.98453 11.5247 -49.1155 -77.5369 175.062
N 1.41027 11.1385 13.7934 57.0229 -92.1671 -33.8942
N 13.8842 14.4999 10.3917 8.91926 -17.2156 11.6773
N 15.9585 0.75275 10.3838 115.627 -26.0872 17.2384
N 6.42923 9.98105 9.605 -78.2029 -15.6228 87.7775
N 0.27579 12.2172 7.14902 -254.783 -278.645 248.086
N 15.5499 15.3852 2.20678 99.8455 -7.91864 -36.1996
N 13.2817 12.7522 8.70345 -6.45405 68.0865 18.398
N 7.74519 12.676 13.6738 32.0707 -58.6145 64.0167
N 3.04765 13.1225 1.47264 3.47501 30.6879 13.1287
N 0.18802 14.9925 7.7434 5.53297 61.8177 -6.54995
N 12.1828 1.15026 10.6986 15.855 -47.7561 14.6383
N 9.33733 7.92943 4.34013 10.1693 -7.69686 15.0669
N 7.78859 12.2463 8.22871 22.5782 75.6391 51.6507
N 2.84556 9.74226 11.3641 66.4597 236.107 6.6145
N 3.58962 12.7839 5.35787 -12.8117 -35.6304 101.238
N 3.90412 3.98678 12.2544 4.6337 -23.2656 20.132
N 15.9858 0.86109 3.82235 -28.0272 5.88623 -53.8753
N 5.28235 13.7981 0.32185 94.1097 35.6623 -54.3976
N 12.6578 11.646 1.45601 174.354 31.5519 62.9059
N 4.29798 5.27484 8.73702 7.22902 -25.461 19.5733
N 6.15268 2.26472 3.06791 33.4693 50.5787 62.7061
N 12.6183 15.6078 12.9213 -12.3343 22.412 -84.3291
N 3.21966 9.43393 15.6124 14.2759 -43.8534 45.8427
N 8.87919 12.4621 1.89077 -27.5653 8.59213 -44.3933
N 11.0516 14.8186 9.23331 18.0733 86.0898 -13.5282
N 10.714 12.3899 6.86333 -37.877 5.44163 -26.8348
N 15.3887 4.72253 5.45799 -35.5755 31.3548 -4.60209
N 16.387 11.8668 9.72292 47.0178 20.675 27.1446
N 11.4037 14.772 2.63405 -13.7957 -8.29534 0.58046
N 2.95977 1.60043 7.79448 74.785 38.2604 -2.40047
N 2.27645 16.1108 0.42794 169.366 37.6476 22.8184
N 13.0846 7.02361 15.4511 130.151 61.5214 115.406
N 4.84476 1.40255 13.1635 -12.7498 -2.02826 38.7577
N 8.70964 4.01924 1.34068 -9.74824 26.3531 -8.12153
N 15.2595 9.28952 2.24466 -15.3604 47.7775 18.9381
N 8.85772 0.41402 9.83411 14.0538 -4.21164 56.8695
N 12.5554 10.1915 15.9263 -70.4184 -152.057 -153.431
N 13.641 14.3205 0.27465 -94.9156 8.80299 54.8147
N 3.1154 4.23965 0.95063 -217.544 20.2396 -40.4031
N 10.2712 7.51382 12.4959 -141.447 -111.503 187.815
N 0.28142 10.8541 16.4895 19.2153 -0.0421516 -1.39086
N 5.15374 15.552 1.82401 66.5952 170.043 -7.71176
N 8.49356 10.9764 11.2569 -117.079 -63.4703 101.428
N 0.16961 3.42859 3.48137 -73.7373 124.568 -96.456
N 14.7155 4.72161 0.50835 -28.8141 36.4177 42.2098
N 9.41094 8.70939 8.98324 -29.6156 -47.6776 50.9871
N 11.9801 12.0207 12.5921 -54.0505 43.0135 -31.4943
N 10.2833 5.52092 10.1479 10.5669 3.29909 -12.5876
N 7.9293 13.3594 11.1907 136.556 98.214 -65.9649
N 1.32933 1.48692 15.4014 13.8327 13.5452 -35.8304
N 14.7126 11.1869 4.34604 -66.602 -174.963 -20.2653
N 11.5101 9.01171 4.12738 -64.4282 56.8285 174.402
N 6.94119 14.8867 2.91794 47.9009 -22.8885 18.6984
N 8.41915 2.22701 11.1629 -99.8917 -32.6773 59.0203
N 3.52561 10.7196 6.50372 -9.94875 -150.344 -94.3848
N 9.88344 0.51541 13.4565 188.518 68.9688 7.3708
N 1.33849 13.4533 16.2987 -65.875 55.2091 -58.2172
N 2.10783 5.70537 5.27624 -52.3612 65.8408 181.409
N 2.56538 10.3693 8.79981 139.585 59.9388 -57.0681
N 9.45404 15.3934 15.3375 -98.8499 -157.174 17.7168
N 6.45986 6.71485 9.30634 36.8151 -3.01553 -32.1019
N 3.76899 15.2806 14.0501 -68.1437 53.7622 60.3449
N 3.83932 7.03471 7.48953 64.6334 -39.1379 5.30377
N 5.13839 9.97302 13.209 15.5072 113.242 89.8806
N 4.81137 13.7608 8.14728 -134.428 5.16201 -22.4008
N 11.2357 1.37256 1.50259 77.0904 -26.9298 15.2136
N 11.5079 6.39037 6.41583 23.4168 82.9877 -68.4402
N 9.3599 4.5887 14.3137 120.179 155.021 96.8443
N 9.47842 9.39797 14.9532 141.245 83.0358 2.80585
N 12.478 8.54718 12.2494 -53.9879 -58.2063 -72.3068
N 4.99475 4.36304 6.35725 -115.957 -140.286 2.44282
N 5.08074 6.88942 11.2129 -12.1518 21.366 5.31689
N 1.92898 5.31168 12.632 -60.7554 0.654308 2.1575
N 6.9195 4.63681 14.9101 116.028 18.913 -185.011
N 7.84661 4.35706 5.55451 -40.8108 3.53265 12.0871
N 14.1481 11.0525 12.257 2.02544 15.7239 -18.4979
N 11.7835 15.6972 16.1578 -102.218 -56.3515 135.432
N 15.0144 9.14239 15.5551 6.94734 -49.3404 10.3787
N 9.10654 16.0246 8.15575 -110.072 -96.5542 -109.566
N 6.69591 2.82915 8.1613 -55.7994 -21.3851 -20.8674
N 14.6326 8.38877 12.3285 16.5253 -5.75042 8.04687
N 11.7607 0.5534 7.46852 0.293209 4.89928 -14.1048
N 9.20157 4.87715 12.1817 17.3601 4.14959 -33.4034
N 4.60588 9.9319 1.66357 -75.8223 99.6639 -81.4129
N 16.2206 1.53292 8.55075 78.9603 40.7411 -77.8402
N 0.16632 3.14721 16.164 12.1172 87.2921 -23.6251
N 13.3673 15.1611 4.30396 -73.979 -9.33183 145.557
N 0.25242 2.23857 12.6254 61.8203 49.4616 47.25
N 16.258 6.83657 10.4968 -24.9726 -11.4245 -13.1123
N 5.1295 15.4667 4.71686 2.20124 82.7761 -103.456
N 5.07298 12.6454 9.88124 -14.3055 -43.6483 75.9112
N 8.76549 1.33418 5.52494 28.239 21.8233 129.878
N 5.41834 8.52132 15.2342 4.66797 -18.2075 15.6635
N 4.30797 0.84434 10.4347 80.9538 90.4192 -20.7812
N 12.1932 4.04666 2.72099 -124.858 -3.21335 -62.2239
N 10.2071 6.47987 2.1807 145.026 -38.9523 63.2889
N 4.92024 1.31705 5.38229 13.5232 47.7931 10.181
N 16.3 7.29115 0.61846 22.7423 -75.702 11.9679
N 10.7087 0.4438 4.47854 -30.4556 -147.249 -7.39603
N 15.3454 1.23118 6.15308 -60.5787 -77.2921 74.7237
N 4.3335 2.75361 16.4962 -35.4542 -98.088 205.757
N 3.36039 15.5048 11.5213 86.8673 -93.7182 2.92713
N 14.076 2.5816 3.81295 20.5367 -28.7682 9.65009
N 15.0402 0.94894 1.44007 47.9491 32.7647 21.4623
N 10.1341 14.2074 12.2722 282.838 -139.549 -49.3562
N 16.3586 4.95146 8.22647 17.5656 3.74832 10.7862
N 5.91005 0.5041 7.19031 27.7518 -41.2807 53.6628
N 15.8943 7.18283 2.95795 98.8981 -10.9786 162.158
N 6.0598 11.4867 15.9839 -13.9495 -10.5587 110.047
N 12.5621 3.0424 0.01443 269.726 -31.3115 17.8995
N 2.62172 7.54588 12.9141 191.577 71.9754 112.73
N 7.39921 9.27522 2.72508 34.2439 84.5826 -39.5505
N 9.04673 4.96453 3.97576 -42.5826 55.7184 -53.1757
N 2.48558 15.159 5.87367 7.09424 -31.9034 13.0446
N 13.0176 1.93514 5.67146 37.3412 153.111 118.856
N 15.2785 0.21438 14.5996 -72.593 72.5819 -87.9989
N 0.41829 8.7242 5.88553 -42.9 122.401 -27.4996
N 12.6496 4.15371 14.1587 128.196 72.9625 2.86437
N 5.12056 9.07144 7.96544 -59.2936 15.225 19.1123
N 11.5288 13.7193 14.8733 -273.355 -79.3344 124.934
N 10.2595 9.79687 2.36057 158.451 -51.3406 -73.5109
N 10.9388 10.2613 8.93197 87.195 -146.627 14.9358
N 13.73 7.16986 9.70545 -62.2901 -30.0478 -33.2273
N 3.49186 11.255 3.73307 178.079 -71.6574 306.995
N 1.1605 11.0038 3.7607 -50.1501 59.7236 39.1384
N 14.5657 1.85162 12.6067 -21.2118 52.1122 4.04328
N 16.2414 11.8315 2.22041 1.35786 10.2769 -2.2831
N 10.1303 3.37808 8.73163 -13.1278 10.9887 -3.05242
N 0.70865 11.9332 13.9954 -103.641 95.5864 23.8007
N 12.7518 8.70613 6.1988 93.7282 66.5615 -15.147
N 14.9195 0.8743 10.6775 -110.693 -5.24029 18.7086
N 5.46222 9.74071 10.432 42.0312 33.4649 -49.4701
N 0.85081 12.8591 6.47367 72.8684 69.61 -251.865
N 14.4831 14.8282 2.35201 3.01977 -25.8058 -1.07744
N 13.3285 11.7021 8.40694 12.8228 -74.293 -21.9759
N 8.11511 11.7376 14.2118 -33.2171 94.0835 -47.1337
N 3.49752 13.958 2.06396 -29.6026 -11.3093 -13.6237
N 1.06634 15.7474 7.50616 -33.4381 -11.5537 19.352
N 11.7907 0.63031 9.81091 -28.334 -19.6381 -30.6708
N 7.82221 6.93269 6.59707 44.0788 -61.7213 -78.2838
N 8.36636 12.9623 8.89469 -28.9663 -32.1206 -62.1007
N 3.14937 10.9599 11.3567 -87.704 -245.925 33.2087
N 2.53053 13.3868 12.7165 64.5178 -13.4776 -106.876
N 0.41393 7.7387 8.27919 20.0124 19.3927 37.6582
N 0.19853 0.48411 4.57473 47.5259 -37.9703 14.2589
N 6.16166 13.9455 16.09 -72.6245 -30.4978 66.2597
N 11.6431 11.4895 1.0718 -143.98 7.78004 -36.0956
N 3.73249 4.48329 8.19336 -13.1544 -7.95279 7.33044
N 6.51573 2.87059 3.97888 -9.38427 -43.2388 -82.6231
N 13.7849 15.4044 13.0201 66.1755 15.1882 125.431
N 0.74737 9.25386 12.5268 8.38565 -5.05195 1.95292
N 8.29138 12.3309 0.93648 34.7479 60.6938 55.9364
N 10.7936 13.8107 9.5488 -20.0687 -78.1698 28.7992
N 8.30697 13.9076 5.00871 26.316 220.067 -342.814
N 14.2373 5.22583 5.08139 16.8287 -50.7878 -54.648
N 16.1215 11.5111 7.8611 33.5207 12.0543 -103.835
N 11.8239 13.7447 2.57015 -3.88039 2.02474 15.8345
N 4.03882 1.96254 7.79371 -81.9535 -5.59757 21.2409
N 3.39405 16.4589 0.34435 -134.465 -44.4282 7.7698
N 14.0324 7.22825 16.2772 -47.0148 -30.4207 -20.638
N 4.96469 0.93463 14.2003 -27.4676 41.5008 -46.1465
N 8.99627 3.87255 0.26969 -15.4275 17.4186 14.9626
N 16.4698 9.18573 2.06103 56.21 33.9496 50.9437
N 1.41012 13.8458 3.91065 10.3438 116.25 32.8919
N 12.0935 9.43796 15.0991 79.3977 131.155 142.022
N 2.22406 0.86947 11.9045 -74.8472 48.5251 -115.225
N 0.63668 7.76997 14.3327 -22.7859 -144.731 2.82465
N 9.64849 7.09581 13.4649 106.44 90.5747 -181.992
N 15.7466 11.3419 16.4264 11.1436 41.0603 22.7708
N 3.3079 3.79806 3.75559 56.8025 -0.890181 -30.9251
N 9.10748 11.8246 10.7429 104.595 65.7988 -62.6549
N 2.91907 12.1208 15.2597 64.6293 44.9723 37.0733
N 14.1481 4.94367 1.46328 29.8622 37.4222 -33.2741
N 6.36238 12.1773 5.63948 -128.161 -126.212 -97.4832
N 11.9546 11.5461 13.6287 3.57309 -5.36356 16.9592
N 10.9578 6.00827 9.40793 -2.11788 -0.270679 -2.37332
N 8.67927 10.2516 7.24281 -9.97018 16.2245 -79.2738
N 2.43713 1.9143 15.1418 66.9747 -62.9938 -6.69076
N 15.1008 12.1714 4.46085 77.3584 157.924 13.8488
N 11.0499 9.38384 5.16456 47.284 -37.6449 -172.537
N 7.99497 15.2003 3.12533 -31.6192 -4.83743 -9.34365
N 9.16381 2.90642 10.6524 23.2731 14.3785 12.0063
N 3.451 9.7697 5.78568 -5.30458 184.97 111.698
N 10.5478 2.4375 15.1843 -1.26416 -6.46054 -513.288
N 0.78034 14.0871 15.5253 53.7 -51.7871 59.1297
N 3.7448 7.75803 5.47743 -201.883 24.3645 -15.6545
N 3.66931 11.0651 9.19481 13.8966 -25.4986 -70.2875
N 7.94742 10.2258 0.1498 -9.15982 -7.2548 19.8674
N 7.51999 6.45929 9.53671 -1.51507 -1.23633 -0.0958481
N 5.15959 13.271 13.8822 24.2709 -22.7238 24.8264
N 2.95748 7.45507 7.97157 -62.7276 47.9492 39.8475
N 5.19698 10.8057 14.022 -6.40474 -109.127 -133.098
N 4.75741 7.44763 5.4358 226.636 -54.0562 -42.5992
N 12.3756 1.44956 1.44347 -122.488 -4.24131 32.3128
N 12.3866 6.82666 5.45028 -37.9873 -110.575 118.649
N 9.75149 5.54041 14.957 -46.3306 -97.5613 -69.6477
N 9.87107 8.47968 15.73 69.8668 -181.044 44.823
N 12.0474 7.853 11.4207 63.8493 63.4055 72.9437
N 15.0344 7.37287 6.20872 14.412 -11.7022 46.0104
N 4.68311 7.62355 10.4618 -3.10266 -17.4623 28.6631
N 0.81462 5.54977 12.602 65.3637 -55.3889 33.1363
N 7.07244 6.11584 14.6484 -32.6145 -89.2742 -36.2439
N 8.33107 3.72937 6.32846 15.7928 1.12486 16.2685
N 13.1343 10.6167 11.4593 8.34148 107.799 118.453
N 12.8109 16.0082 15.7505 38.3911 37.548 -51.7802
N 5.15379 13.8527 12.9467 13.6934 -21.4027 -28.656
N 13.4039 9.10444 7.19174 -29.889 41.1932 7.29834
N 7.64637 3.24357 8.51105 49.2866 19.8681 21.7936
N 14.5211 7.45163 12.9314 29.1761 0.90546 18.2148
N 11.295 16.2497 6.86268 -9.16021 -9.64879 11.9237
N 8.44438 5.66181 11.9865 -25.4427 8.71841 -6.84863
N 3.47266 10.097 1.127 85.7427 -12.8307 51.1001
N 3.20243 16.001 9.06846 -20.3024 -28.9288 -40.7122
N 0.25637 4.28253 15.503 -45.1872 -294.489 135.222
N 3.58744 15.8401 8.02373 -1.07189 -6.67331 33.3
N 13.0465 5.325 11.901 -40.1991 63.272 -63.1428
N 15.4324 9.17142 9.71236 -91.2751 -14.4013 -104.747
N 5.22016 14.8149 5.57325 29.4826 -47.4589 93.298
N 6.45996 15.78 12.8015 -109.697 -19.4147 93.3969
N 7.96532 0.41056 5.47529 11.8227 28.7384 -27.4424
N 6.54536 2.36693 0.25864 -16.2908 17.2547 13.3902
N 11.0137 3.98494 4.92977 24.1242 2.21261 -38.956
N 11.2972 3.78366 2.0272 94.5097 22.2789 72.121
N 9.58647 7.30783 1.76259 -134.93 93.5467 -92.8141
N 13.7983 5.00077 8.10083 -32.5468 -22.2149 -26.5277
N 16.3971 6.33291 1.24292 12.786 62.7377 -71.6456
N 11.4663 1.28149 4.34778 -4.50911 43.6679 -34.9897
N 15.0163 0.09184 6.53639 26.4771 87.332 -56.6526
N 4.0335 2.39755 1.17264 58.5069 45.6794 -223.823
N 4.50222 15.4986 11.5417 -55.5359 -9.00787 -23.1122
N 13.1851 0.19486 3.28851 37.4188 23.6508 33.8458
N 14.1489 0.61899 0.88952 -18.7192 -31.1777 -50.4674
N 9.21586 14.6561 12.4687 -274.273 129.322 77.0076
N 1.51286 3.80474 9.91366 -99.2567 36.8297 -2.61932
N 6.37612 0.23048 8.20002 1.04776 111.57 -82.7462
N 14.8866 7.56635 7.32688 21.7743 -14.3144 -72.3769
N 6.8812 9.22066 5.02018 62.5082 -25.7776 53.9908
N 13.7896 3.02176 0.15445 -200.409 -49.3263 -61.3242
N 3.60382 7.88653 13.5297 -177.243 -77.9268 -123.988
N 8.21477 10.0685 2.61442 -89.2172 -13.9919 -3.69888
N 6.84764 7.01391 1.39319 6.58746 72.8448 -42.3692
N 2.39261 16.1977 5.51812 13.7392 47.8322 -27.7636
N 13.0773 2.62873 9.10281 89.1801 -79.1242 -87.958
N 14.3468 12.3835 14.9522 -11.7472 73.7442 -84.0963
N 16.3988 9.75905 5.75232 48.8006 -116.432 25.5184
N 13.8185 4.65639 14.1246 -113.272 -67.7952 29.3546
N 6.01298 8.77748 7.40297 57.3017 -25.3416 -41.3698
N 12.3921 14.0934 14.4392 276.992 92.906 -139.571
N 12.0163 11.6404 5.36798 105.427 11.4273 -159.309
N 11.7302 9.00014 9.21558 -8.40296 134.991 68.4721
N 6.22617 5.83417 3.64976 -179.518 -106.23 28.8343
N 3.08439 11.345 2.78735 -153.86 37.5721 -326.396
N 1.0991 11.512 4.77024 7.40791 -38.0006 -44.9444
N 11.6327 5.93239 0.0946 -2.6037 -59.8032 1.39494
N 16.1672 12.9201 1.98486 23.7658 -8.9063 -2.56255
N 11.0123 3.27398 8.07963 32.5494 -14.3618 -3.16356
ITEM: TIMESTEP
1
ITEM: NUMBER OF ATOMS
512
ITEM: BOX BOUNDS xy xz yz pp pp pp
0.0000000000000000e+00 1.6500000000000000e+01 0.0000000000000000e+00
0.0000000000000000e+00 1.6500000000000000e+01 0.0000000000000000e+00
0.0000000000000000e+00 1.6500000000000000e+01 0.0000000000000000e+00
ITEM: ATOMS element xu yu zu fx fy fz
H 8.39052 3.36462 14.2841 -71.1491 -86.503 19.3728
H 13.7077 9.46225 4.37169 -50.393 53.1053 -99.5836
H 2.89886 6.52303 11.2373 25.7584 -45.571 10.5837
H 0.89108 15.5662 9.83529 -7.76744 -18.0168 48.0689
H 14.4606 9.82248 5.68186 -16.7918 -50.015 -22.4558
H 13.6067 15.6003 14.2205 43.6037 -9.07221 -31.1706
H 16.2565 13.9502 5.74116 -32.417 10.5635 -6.42565
H 10.0574 12.1775 11.0789 -15.2995 -11.0609 -6.82868
H 11.1366 11.5313 15.7896 40.1325 -13.2361 -2.18149
H 2.49878 0.09094 11.2195 -12.2569 39.362 33.3908
H 9.32231 1.73089 2.56565 38.3076 -197.68 -161.916
H 5.8465 12.6704 4.81777 1.87426 -37.4577 10.8154
H 16.4013 15.7128 13.0993 -13.0294 320.041 88.5442
H 16.2915 6.99808 14.4606 33.5506 46.1359 -37.7
H 2.38442 12.4249 12.6615 22.4069 -50.1813 -39.8366
H 1.3452 7.44228 8.73221 -49.6849 10.7081 -18.2988
H 1.59766 3.72829 6.16807 29.9941 -87.6288 -75.675
H 1.01954 14.124 9.03162 46.3733 -81.1898 10.3001
H 8.03782 8.46061 14.4609 -52.0061 -64.8119 -25.3085
H 4.35078 3.85727 3.19838 -94.733 -33.1683 20.4226
H 1.42557 12.5111 9.46911 -65.4708 -85.3743 18.3196
H 13.8873 7.67122 2.54583 -17.9935 -29.434 40.7378
H 5.94197 15.872 15.7118 66.157 31.0324 -20.2268
H 15.9112 2.46852 15.956 -9.949 23.182 -4.40424
H 0.76326 9.52484 2.72585 -33.8569 -0.384814 -4.65191
H 7.12025 11.6017 5.10612 -29.3344 27.4639 37.6146
H 0.73836 14.604 13.1198 44.4368 -32.1595 10.1804
H 7.7937 7.96487 6.33189 5.66508 -41.5748 4.14687
H 5.52571 4.02804 13.6431 -128.259 -17.4117 -6.38224
H 16.1614 14.6824 10.752 -23.1958 8.90871 2.9471
H 0.05049 1.50626 2.067 62.9288 37.8354 -41.5604
H 5.6002 13.7953 9.32834 66.0745 60.6397 55.0423
H 14.1693 4.81321 4.07355 -17.8451 10.3847 38.8892
H 10.8864 7.91471 15.4951 -53.6454 57.6721 6.27998
H 12.3518 6.92327 3.24911 -11.2908 8.36924 -3.78504
H 2.76866 13.9187 11.8404 -10.2588 -23.2351 43.8823
H 7.05113 3.2591 13.3717 -7.66859 -4.27124 22.2972
H 1.10421 14.8967 3.86609 24.7419 -48.0944 5.32371
H 0.1367 8.3478 14.881 -38.6122 97.3485 57.287
H 8.14878 10.0352 13.6622 14.8001 -27.5458 12.6719
H 2.33224 13.2723 9.48984 152.992 61.409 61.6941
H 7.1819 15.3448 9.85141 -62.8101 -43.6651 -20.6763
H 10.4977 12.7173 14.7632 -35.4962 -64.9265 2.68973
H 13.83 7.89798 0.69573 -10.3556 -19.3723 -53.802
H 4.44825 1.38172 3.07601 -15.8218 4.58947 18.5778
H 13.2817 4.2786 11.7143 -15.5916 64.3576 26.0581
H 8.91235 2.90497 2.63877 -53.1484 113.127 -21.3445
H 1.26072 1.636 2.94598 26.1588 3.27103 -15.5603
H 14.3014 10.9858 2.10232 -2.83311 8.93204 -7.45355
H 1.37403 13.5034 6.80669 136.155 152.189 77.8779
H 11.3733 1.41944 14.5514 91.8424 -24.9328 14.0987
H 1.81851 1.6129 1.36068 -44.3002 6.65525 33.4414
H 11.941 9.56598 10.2794 -1.99643 -58.6604 -64.4253
H 2.46034 3.12043 3.80191 53.2343 56.6603 -28.8505
H 5.48533 10.6705 2.20196 -19.5844 17.9577 19.8957
H 7.31495 2.59277 12.4773 -13.1126 -32.8057 -3.48203
H 2.21623 7.41174 10.4834 -37.6075 118.571 -37.2708
H 8.8554 6.47159 6.29558 -76.5306 47.0252 19.6992
H 6.25785 4.50573 15.5172 -124.692 -29.2309 116.563
H 6.3661 6.37496 15.3313 -5.93312 19.9531 -0.814755
H 1.54387 13.5833 4.92061 -26.0525 13.7445 -41.3597
H 0.57192 8.57592 7.72202 23.4439 -12.6087 -12.8269
H 1.95401 13.5517 13.4123 -71.7296 73.7679 96.6259
H 13.3043 1.83875 14.5692 -25.0926 -9.28941 15.7
H 14.9103 14.2812 4.60683 46.1946 -38.2867 15.9441