LAMMPS data file for simulation

272 atoms
2 atom types				
				
0.0 16.5 xlo xhi				
0.0 16.5 ylo yhi				
0.0 16.5 zlo zhi				
				
Masses				
				
1 14.0064  # Nitrogen				
2 1.008   # Hydrogen				
				
				
Atoms				
				
1	1	8.20107	14.61177	0.04871
2	1	7.84129	14.19459	15.20889
3	1	7.89334	13.80321	14.13865
4	1	8.00619	6.95301	1.98271
5	1	8.04332	8.17293	2.21449
6	1	8.25319	9.27711	2.48044
7	1	16.00816	4.16587	8.47645
8	1	16.08944	5.29136	8.07942
9	1	16.33444	6.23052	7.71017
10	1	9.86749	1.40155	13.34729
11	1	10.23816	2.2846	14.15308
12	1	10.45178	3.20844	14.8924
13	1	4.13279	4.55647	10.65277
14	1	3.0644	3.84465	10.56969
15	1	2.13727	3.43676	10.18063
16	1	9.57846	8.01599	14.69098
17	1	9.81059	7.29171	15.59196
18	1	10.23999	6.43355	16.38243
19	1	6.26002	1.11809	13.90297
20	1	5.73435	2.2515	14.13658
21	1	5.26297	3.2002	14.12855
22	1	11.44046	2.77827	10.6406
23	1	12.77546	2.94538	10.54501
24	1	13.72248	3.12784	10.31092
25	1	6.90302	6.52693	13.90878
26	1	7.34607	5.78932	12.98363
27	1	7.6448	5.03629	12.11969
28	1	3.53117	13.17206	0.72688
29	1	2.96122	13.03274	1.90852
30	1	2.93655	12.70631	3.06965
31	1	13.40983	14.84498	13.73048
32	1	12.40114	14.60225	14.73773
33	1	11.57198	14.47038	15.3942
34	1	7.13197	8.74471	11.62327
35	1	6.27583	9.78315	12.05418
36	1	5.37783	10.41722	12.60952
37	1	1.20373	13.41711	7.7883
38	1	1.65803	13.28687	8.95716
39	1	2.17884	13.10913	9.89793
40	1	2.52479	1.81527	12.96037
41	1	2.80435	1.21777	12.0031
42	1	3.20554	0.65871	11.1973
43	1	4.46315	13.72664	6.63794
44	1	3.60886	14.61229	6.31213
45	1	3.03248	15.46641	5.9882
46	1	9.76288	15.53816	6.93366
47	1	8.71693	15.9307	7.31769
48	1	7.60731	16.27886	7.61335
49	1	3.38867	10.81742	5.12906
50	1	3.60417	11.08663	6.30285
51	1	3.69274	11.11642	7.59793
52	1	5.29142	15.31187	16.27753
53	1	5.44665	0.05971	0.30802
54	1	5.70327	1.08837	0.59808
55	1	3.16398	5.96086	4.90974
56	1	3.10923	5.35161	5.92137
57	1	2.56578	4.61908	6.64953
58	1	4.9179	14.27255	13.48567
59	1	3.79982	13.65631	13.42069
60	1	2.73952	13.25838	13.31624
61	1	6.59031	8.45213	16.07294
62	1	6.8446	9.48674	15.75632
63	1	7.07522	10.59332	15.47502
64	1	15.92024	7.69004	16.11675
65	1	15.25539	8.19466	15.17859
66	1	14.75719	8.91524	14.55996
67	1	10.24201	0.28591	16.26508
68	1	10.73569	1.21609	0.64697
69	1	11.32534	1.96067	1.2805
70	1	11.71868	10.62654	5.50712
71	1	11.76737	9.35269	5.67341
72	1	12.21233	8.12956	5.76742
73	1	7.75913	2.68809	1.85531
74	1	7.87622	3.46042	0.94962
75	1	7.86586	4.09773	16.40339
76	1	16.49491	9.86792	3.80251
77	1	0.09248	10.75456	4.76201
78	1	0.51244	11.44898	5.5856
79	1	9.06446	12.02845	6.42384
80	1	8.51435	11.36156	7.0505
81	1	7.98779	10.65128	7.79098
82	1	6.19908	4.38628	4.09242
83	1	5.60951	4.73592	3.11554
84	1	5.37451	5.14067	2.21444
85	1	10.02602	12.20166	0.26885
86	1	10.6149	10.99588	0.181
87	1	11.01103	10.07984	16.46561
88	1	13.27793	7.32554	2.27477
89	1	12.29781	6.90347	2.93195
90	1	11.56397	6.2615	3.22047
91	1	10.03957	8.50572	10.65148
92	1	10.44947	8.91718	9.69914
93	1	10.75431	9.17508	8.66692
94	1	10.30052	3.81191	4.06235
95	1	9.87861	3.49126	5.10766
96	1	9.25471	3.11261	6.05361
97	1	16.14985	2.65669	5.97402
98	1	15.95341	1.26491	5.62227
99	1	16.11774	0.2128	5.32537
100	1	14.86903	14.0599	6.39139
101	1	14.83989	14.07996	5.11758
102	1	14.74579	14.24149	4.08059
103	1	9.804	11.84973	9.78667
104	1	9.0638	12.0031	10.49541
105	1	8.3826	11.79739	11.46045
106	1	14.05447	0.84464	16.4832
107	1	13.61448	1.10361	15.48061
108	1	13.27704	1.61921	14.60742
109	1	12.24612	9.74872	12.88114
110	1	11.78578	10.89279	13.29515
111	1	11.30561	11.79963	13.60981
112	1	15.23752	13.82474	0.0996
113	1	15.96904	13.77906	15.69433
114	1	16.49847	13.68351	14.60331
115	1	0.01	0.86001	9.30931
116	1	16.49636	0.60413	10.60795
117	1	16.25129	0.47185	11.77204
118	1	16.38958	16.33189	1.99557
119	1	1.18431	16.12937	2.20978
120	1	2.38403	15.78998	2.18864
121	1	6.60617	14.87823	11.25691
122	1	5.76605	14.55861	10.24113
123	1	5.23544	14.41237	9.40823
124	1	8.08671	1.00338	10.77477
125	1	6.95854	1.6455	11.02891
126	1	6.12733	2.367	11.14733
127	1	14.14931	5.86526	5.4505
128	1	15.16392	5.67629	4.67184
129	1	15.93194	5.39313	3.96215
130	1	3.77404	8.77851	9.78396
131	1	4.60751	7.87673	9.51722
132	1	5.02876	6.88881	9.16137
133	1	11.73198	6.22523	9.38939
134	1	11.26335	6.08788	8.32359
135	1	10.86254	5.87321	7.22629
136	1	7.24557	5.1848	8.72789
137	1	6.87541	4.49953	8.00638
138	1	6.28487	3.73276	7.15414
139	1	2.10872	5.79935	16.31232
140	1	3.15795	6.05553	15.866
141	1	4.18106	6.54866	15.30811
142	1	14.26302	1.75084	2.85389
143	1	13.567	2.11727	3.81562
144	1	13.10924	2.44891	4.84792
145	1	14.37714	4.52755	1.32425
146	1	14.57968	3.96232	0.31899
147	1	14.92632	3.73901	15.55912
148	1	1.36527	2.96457	3.31227
149	1	2.3301	2.7513	3.97541
150	1	3.49643	2.47561	4.31899
151	1	2.36779	9.88312	2.21711
152	1	3.1772	8.92746	1.9356
153	1	3.88401	8.40682	1.43944
154	1	14.076	0.29534	7.66007
155	1	12.90579	0.33677	8.06092
156	1	11.83001	0.41921	8.52587
157	1	5.66672	16.47624	4.74509
158	1	5.36444	15.64936	4.03898
159	1	5.33305	14.72381	3.2542
160	1	4.44834	1.30574	7.5318
161	1	3.25839	1.35095	7.6179
162	1	2.11195	1.4654	7.65586
163	1	16.31796	9.71299	8.1634
164	1	15.33922	9.68129	7.4483
165	1	14.62841	9.79235	6.4897
166	1	1.17722	3.16699	0.22195
167	1	0.86531	2.0726	16.03876
168	1	0.4738	1.19381	15.28998
169	1	12.75816	13.037	8.58655
170	1	13.10667	11.89414	9.05914
171	1	13.41913	10.99463	9.68487
172	1	11.83011	16.49564	11.80203
173	1	10.92548	15.731	11.41241
174	1	10.15407	15.15528	10.88879
175	1	13.38451	11.09654	3.19231
176	1	12.96836	11.9386	2.45108
177	1	12.78942	12.66485	1.58156
178	1	0.30973	11.05308	11.37531
179	1	16.02865	11.85008	11.94701
180	1	15.05498	12.18878	12.57412
181	1	8.98603	13.6081	2.99834
182	1	9.07962	14.76334	2.91237
183	1	8.82003	15.98139	3.10627
184	1	10.61926	5.07225	11.85617
185	1	11.19094	5.49845	12.85711
186	1	11.84655	5.7849	13.77944
187	1	0.59902	8.3634	11.16415
188	1	1.53495	7.9088	11.67752
189	1	2.47436	7.27815	12.23859
190	1	9.10484	8.10511	5.18787
191	1	7.83956	8.10768	5.37772
192	1	6.77552	8.17777	5.42758
193	1	3.42249	10.40842	15.54814
194	1	2.5793	9.64908	15.08338
195	1	1.77691	9.02006	14.78243
196	1	15.03703	6.03046	11.22323
197	1	15.77056	5.26852	11.7057
198	1	16.47806	4.61465	12.33818
199	1	11.84116	14.63408	5.10159
200	1	11.79113	15.27848	3.88273
201	1	12.06134	15.72592	2.96228
202	1	6.73076	12.0566	4.81448
203	1	6.32422	11.78797	3.84468
204	1	6.03357	11.41815	2.69048
205	2	7.39821	14.0732	0.49178
206	2	7.17256	6.68466	1.17834
207	2	15.41944	3.98171	9.42382
208	2	10.56596	0.99998	12.63422
209	2	4.6668	4.17508	11.48865
210	2	8.61345	7.78644	14.23427
211	2	7.31956	1.30048	13.64205
212	2	11.13618	3.44513	11.39515
213	2	6.13	6.13487	14.54113
214	2	3.33382	12.27734	0.16156
215	2	14.13693	14.15407	13.91297
216	2	8.09961	9.09219	11.44853
217	2	0.7195	12.54448	7.45271
218	2	1.87449	2.63732	12.83416
219	2	4.7355	13.77032	7.64692
220	2	10.46436	16.01911	7.45787
221	2	2.78751	11.36142	4.83763
222	2	4.82696	14.75319	0.55509
223	2	4.12837	6.46703	5.08437
224	2	5.05319	14.8488	14.42024
225	2	5.62927	7.85214	15.71344
226	2	0.36672	7.30258	16.09029
227	2	9.36501	16.38269	0.03196
228	2	10.82062	10.91379	5.94723
229	2	8.3979	2.88323	2.66606
230	2	15.4651	9.88305	3.57809
231	2	8.422	12.42033	5.64289
232	2	5.95818	3.46271	4.22685
233	2	10.82859	12.95816	0.12481
234	2	13.58989	6.7225	1.50123
235	2	10.72509	8.88784	11.50957
236	2	10.77861	4.65885	4.23807
237	2	15.55781	2.82362	6.60548
238	2	15.08925	14.82213	6.78856
239	2	9.64717	12.62927	9.07599
240	2	14.8419	0.05195	16.30311
241	2	13.04571	9.49899	13.48501
242	2	15.80145	14.35464	0.85647
243	2	0.80069	1.19576	8.89078
244	2	16.01448	0.52816	2.66005
245	2	6.25529	14.52989	12.20606
246	2	7.74079	0.02938	10.99449
247	2	13.47732	6.65342	5.2181
248	2	3.80831	9.61653	9.07712
249	2	11.13456	5.8483	10.05609
250	2	6.50815	5.87436	9.27204
251	2	1.88039	4.84625	16.27941
252	2	13.50505	1.60491	2.18856
253	2	14.39859	3.78861	2.08594
254	2	0.70108	3.59733	3.91534
255	2	1.57569	9.65884	2.70173
256	2	14.84435	0.52722	8.27644
257	2	5.00158	0.22347	5.51875
258	2	5.06322	2.20525	7.23435
259	2	16.13129	9.27021	9.1505
260	2	1.218	2.99332	1.31677
261	2	13.19447	13.19249	7.6895
262	2	12.59187	16.01802	12.24416
263	2	12.84895	11.08989	4.13249
264	2	1.01636	11.83539	11.09359
265	2	9.39496	13.15547	2.11467
266	2	9.64108	5.13538	12.25182
267	2	0.47022	9.37002	11.15208
268	2	9.5496	7.22961	5.64833
269	2	4.29295	10.52963	15.02569
270	2	15.53766	6.91302	10.76008
271	2	10.81177	14.75578	5.48062
272	2	5.80096	12.73306	5.39701
