# LAMMPS data file written by OVITO Basic 3.10.6

1536 atoms
2 atom types

0.0 23.64864 xlo xhi
0.0 24.43664 ylo yhi
0.0 23.84692 zlo zhi

Masses

1 12.0107  # C
2 15.9994  # O

Atoms  # atomic

1 1 2.65403 9.85736 9.77637
2 1 6.74608 11.69894 1.14776
3 1 -8.881784197e-16 3.31707 8.3535
4 1 7.64967 11.94289 4.06524
5 1 6.14404 11.00315 1.95613
6 1 6.37407 4.14282 2.52307
7 1 7.12944 0.70738 2.52971
8 1 3.76382 8.27792 9.85475
9 1 3.49411 11.85611 1.78534
10 1 6.68934 0.93163 7.50478
11 1 6.62038 5.09444 11.56639
12 1 1.09813 5.31542 9.36215
13 1 0.11635 0.48933 6.32516
14 1 7.50255 9.67397 7.11569
15 1 2.44641 0.88907 8.38204
16 1 4.12584 6.37023 7.68926
17 1 4.73361 1.27812 0.88011
18 1 4.98856 10.69063 11.20913
19 1 6.60969 6.27587 9.37452
20 1 0.07206 9.06227 1.55691
21 1 3.24948 10.34002 1.30863
22 1 5.05878 4.43775 9.98026
23 1 5.99746 9.05901 1.67139
24 1 6.36403 6.36539 10.76821
25 1 5.54363 1.37348 8.3644
26 1 1.99635 2.99372 3.85838
27 1 0.35111 8.60253 6.89408
28 1 0.00763 1.76099 2.2364
29 1 5.80491 10.05351 4.77364
30 1 6.90758 5.46519 0.56466
31 1 1.8013 3.52882 11.44377
32 1 7.80249 3.8714 11.27039
33 1 5.02792 1.89417 9.47064
34 1 5.60222 8.51752 0.23188
35 1 5.53679 6.97203 3.73746
36 1 4.06237 6.51684 0.83909
37 1 3.65831 9.2227 2.56022
38 1 6.739 9.02807 11.00057
39 1 1.02583 9.74377 9.75108
40 1 3.6906 4.95121 0.92375
41 1 5.25861 9.5072 6.08649
42 1 5.78754 9.73563 11.54539
43 1 4.32174 12.08876 0.45674
44 1 1.42688 6.7556 2.76164
45 1 1.36552 6.57557 6.44874
46 1 4.64369 11.16682 4.40184
47 1 0.62143 9.18224 11.33728
48 1 1.03277 7.88122 11.76759
49 1 4.77676 1.96842 4.76402
50 1 4.66025 5.96909 3.55679
51 1 7.02856 7.56674 5.54548
52 1 2.12267 3.25278 6.83023
53 1 6.06371 0.64955 0.47091
54 1 7.74306 5.07167 8.98977
55 1 5.09772 11.83101 10.25976
56 1 1.55928 9.49044 1.3877787808e-17
57 1 2.1397 12.21832 2.05377
58 1 6.30199 7.32734 11.92346
59 1 6.8087 7.83222 8.66736
60 1 5.88938 8.15082 6.30147
61 1 5.15768 4.64826 5.36979
62 1 1.5625 0.52486 11.65828
63 1 3.43218 11.86106 7.65409
64 1 3.9995 11.94579 5.17345
65 2 1.69193 0.98852 9.2183
66 2 6.72464 9.52118 4.04387
67 2 4.63263 0.61166 6.40222
68 2 6.44916 4.6382 5.77308
69 2 7.88288 2.60553 3.32161
70 2 3.01116 3.36783 3.3019
71 2 0.67677 12.21139 7.20692
72 2 3.35278 7.30791 1.2231
73 2 4.07411 1.39681 3.83442
74 2 7.14747 2.99842 11.17892
75 2 3.61169 5.85328 3.71477
76 2 7.15304 8.83366 9.3951
77 2 4.03591 4.3391 10.86195
78 2 4.11634 2.5147 0.77813
79 2 0.36661 0.91095 5.12706
80 2 4.85367 8.91702 10.02482
81 2 0.72205 10.80785 9.28836
82 2 6.73896 3.38098 1.77495
83 2 5.42902 6.16513 9.6295
84 2 3.02352 6.1101 7.99473
85 2 2.5337 1.34488 11.90481
86 2 7.78613 4.89381 1.06695
87 2 3.3688 7.23455 10.48261
88 2 6.31357 0.0 9.89378
89 2 2.15309 5.17715 9.78653
90 2 5.13257 11.61419 2.66118
91 2 4.45751 1.94505 10.53472
92 2 4.38299 3.76559 5.10288
93 2 6.32113 6.35168 1.47577
94 2 2.68249 11.13696 6.95027
95 2 2.18015 6.61305 5.65156
96 2 0.9545 5.77495 3.11042
97 2 5.8806 3.57565 9.76292
98 2 2.76896 12.01852 4.80116
99 2 0.72711 7.04417 10.99668
100 2 0.70812 11.13271 4.28246
101 2 4.40485 5.58137 6.45236
102 2 5.67289 2.325 4.17174
103 2 4.51711 11.58702 8.27118
104 2 4.98616 4.6706 0.71763
105 2 0.68575 1.76031 0.94494
106 2 1.48629 8.27503 7.31081
107 2 3.17552 10.71815 9.7686
108 2 7.32617 6.54908 5.38652
109 2 4.6095 2.17597 7.76369
110 2 2.54858 0.79968 2.97748
111 2 0.4817 6.43407 7.22481
112 2 4.82298 8.51201 2.15667
113 2 7.60559 10.86429 6.72747
114 2 6.50513 4.81163 3.45033
115 2 0.69072 2.93673 9.41016
116 2 2.28224 3.45901 0.28439
117 2 5.794 8.04361 7.75474
118 2 3.93647 9.16273 6.51755
119 2 1.7579 4.00799 7.64225
120 2 2.21717 2.36665 6.12967
121 2 3.18292 8.58825 3.35579
122 2 3.41855 9.71429 0.27011
123 2 7.11171 2.57478 7.63229
124 2 1.50031 11.14271 1.5821
125 2 0.68338 9.11766 2.61476
126 2 2.59285 4.92965 1.74778
127 2 6.57126 7.45679 3.55116
128 2 4.12206 7.59983 6.52601
129 1 2.65403 9.85736 21.69983
130 1 6.74608 11.69894 13.07122
131 1 -8.881784197e-16 3.31707 20.27696
132 1 7.64967 11.94289 15.9887
133 1 6.14404 11.00315 13.87959
134 1 6.37407 4.14282 14.44653
135 1 7.12944 0.70738 14.45317
136 1 3.76382 8.27792 21.77821
137 1 3.49411 11.85611 13.7088
138 1 6.68934 0.93163 19.42824
139 1 6.62038 5.09444 23.48985
140 1 1.09813 5.31542 21.28561
141 1 0.11635 0.48933 18.24862
142 1 7.50255 9.67397 19.03915
143 1 2.44641 0.88907 20.3055
144 1 4.12584 6.37023 19.61272
145 1 4.73361 1.27812 12.80357
146 1 4.98856 10.69063 23.13259
147 1 6.60969 6.27587 21.29798
148 1 0.07206 9.06227 13.48037
149 1 3.24948 10.34002 13.23209
150 1 5.05878 4.43775 21.90372
151 1 5.99746 9.05901 13.59485
152 1 6.36403 6.36539 22.69167
153 1 5.54363 1.37348 20.28786
154 1 1.99635 2.99372 15.78184
155 1 0.35111 8.60253 18.81754
156 1 0.00763 1.76099 14.15986
157 1 5.80491 10.05351 16.6971
158 1 6.90758 5.46519 12.48812
159 1 1.8013 3.52882 23.36723
160 1 7.80249 3.8714 23.19385
161 1 5.02792 1.89417 21.3941
162 1 5.60222 8.51752 12.15534
163 1 5.53679 6.97203 15.66092
164 1 4.06237 6.51684 12.76255
165 1 3.65831 9.2227 14.48368
166 1 6.739 9.02807 22.92403
167 1 1.02583 9.74377 21.67454
168 1 3.6906 4.95121 12.84721
169 1 5.25861 9.5072 18.00995
170 1 5.78754 9.73563 23.46885
171 1 4.32174 12.08876 12.3802
172 1 1.42688 6.7556 14.6851
173 1 1.36552 6.57557 18.3722
174 1 4.64369 11.16682 16.3253
175 1 0.62143 9.18224 23.26074
176 1 1.03277 7.88122 23.69105
177 1 4.77676 1.96842 16.68748
178 1 4.66025 5.96909 15.48025
179 1 7.02856 7.56674 17.46894
180 1 2.12267 3.25278 18.75369
181 1 6.06371 0.64955 12.39437
182 1 7.74306 5.07167 20.91323
183 1 5.09772 11.83101 22.18322
184 1 1.55928 9.49044 11.92346
185 1 2.1397 12.21832 13.97723
186 1 6.30199 7.32734 23.84692
187 1 6.8087 7.83222 20.59082
188 1 5.88938 8.15082 18.22493
189 1 5.15768 4.64826 17.29325
190 1 1.5625 0.52486 23.58174
191 1 3.43218 11.86106 19.57755
192 1 3.9995 11.94579 17.09691
193 2 1.69193 0.98852 21.14176
194 2 6.72464 9.52118 15.96733
195 2 4.63263 0.61166 18.32568
196 2 6.44916 4.6382 17.69654
197 2 7.88288 2.60553 15.24507
198 2 3.01116 3.36783 15.22536
199 2 0.67677 12.21139 19.13038
200 2 3.35278 7.30791 13.14656
201 2 4.07411 1.39681 15.75788
202 2 7.14747 2.99842 23.10238
203 2 3.61169 5.85328 15.63823
204 2 7.15304 8.83366 21.31856
205 2 4.03591 4.3391 22.78541
206 2 4.11634 2.5147 12.70159
207 2 0.36661 0.91095 17.05052
208 2 4.85367 8.91702 21.94828
209 2 0.72205 10.80785 21.21182
210 2 6.73896 3.38098 13.69841
211 2 5.42902 6.16513 21.55296
212 2 3.02352 6.1101 19.91819
213 2 2.5337 1.34488 23.82827
214 2 7.78613 4.89381 12.99041
215 2 3.3688 7.23455 22.40607
216 2 6.31357 0.0 21.81724
217 2 2.15309 5.17715 21.70999
218 2 5.13257 11.61419 14.58464
219 2 4.45751 1.94505 22.45818
220 2 4.38299 3.76559 17.02634
221 2 6.32113 6.35168 13.39923
222 2 2.68249 11.13696 18.87373
223 2 2.18015 6.61305 17.57502
224 2 0.9545 5.77495 15.03388
225 2 5.8806 3.57565 21.68638
226 2 2.76896 12.01852 16.72462
227 2 0.72711 7.04417 22.92014
228 2 0.70812 11.13271 16.20592
229 2 4.40485 5.58137 18.37582
230 2 5.67289 2.325 16.0952
231 2 4.51711 11.58702 20.19464
232 2 4.98616 4.6706 12.64109
233 2 0.68575 1.76031 12.8684
234 2 1.48629 8.27503 19.23427
235 2 3.17552 10.71815 21.69206
236 2 7.32617 6.54908 17.30998
237 2 4.6095 2.17597 19.68715
238 2 2.54858 0.79968 14.90094
239 2 0.4817 6.43407 19.14827
240 2 4.82298 8.51201 14.08013
241 2 7.60559 10.86429 18.65093
242 2 6.50513 4.81163 15.37379
243 2 0.69072 2.93673 21.33362
244 2 2.28224 3.45901 12.20785
245 2 5.794 8.04361 19.6782
246 2 3.93647 9.16273 18.44101
247 2 1.7579 4.00799 19.56571
248 2 2.21717 2.36665 18.05313
249 2 3.18292 8.58825 15.27925
250 2 3.41855 9.71429 12.19357
251 2 7.11171 2.57478 19.55575
252 2 1.50031 11.14271 13.50556
253 2 0.68338 9.11766 14.53822
254 2 2.59285 4.92965 13.67124
255 2 6.57126 7.45679 15.47462
256 2 4.12206 7.59983 18.44947
257 1 2.65403 22.07568 9.77637
258 1 6.74608 23.91726 1.14776
259 1 -8.881784197e-16 15.53539 8.3535
260 1 7.64967 24.16121 4.06524
261 1 6.14404 23.22147 1.95613
262 1 6.37407 16.36114 2.52307
263 1 7.12944 12.9257 2.52971
264 1 3.76382 20.49624 9.85475
265 1 3.49411 24.07443 1.78534
266 1 6.68934 13.14995 7.50478
267 1 6.62038 17.31276 11.56639
268 1 1.09813 17.53374 9.36215
269 1 0.11635 12.70765 6.32516
270 1 7.50255 21.89229 7.11569
271 1 2.44641 13.10739 8.38204
272 1 4.12584 18.58855 7.68926
273 1 4.73361 13.49644 0.88011
274 1 4.98856 22.90895 11.20913
275 1 6.60969 18.49419 9.37452
276 1 0.07206 21.28059 1.55691
277 1 3.24948 22.55834 1.30863
278 1 5.05878 16.65607 9.98026
279 1 5.99746 21.27733 1.67139
280 1 6.36403 18.58371 10.76821
281 1 5.54363 13.5918 8.3644
282 1 1.99635 15.21204 3.85838
283 1 0.35111 20.82085 6.89408
284 1 0.00763 13.97931 2.2364
285 1 5.80491 22.27183 4.77364
286 1 6.90758 17.68351 0.56466
287 1 1.8013 15.74714 11.44377
288 1 7.80249 16.08972 11.27039
289 1 5.02792 14.11249 9.47064
290 1 5.60222 20.73584 0.23188
291 1 5.53679 19.19035 3.73746
292 1 4.06237 18.73516 0.83909
293 1 3.65831 21.44102 2.56022
294 1 6.739 21.24639 11.00057
295 1 1.02583 21.96209 9.75108
296 1 3.6906 17.16953 0.92375
297 1 5.25861 21.72552 6.08649
298 1 5.78754 21.95395 11.54539
299 1 4.32174 24.30708 0.45674
300 1 1.42688 18.97392 2.76164
301 1 1.36552 18.79389 6.44874
302 1 4.64369 23.38514 4.40184
303 1 0.62143 21.40056 11.33728
304 1 1.03277 20.09954 11.76759
305 1 4.77676 14.18674 4.76402
306 1 4.66025 18.18741 3.55679
307 1 7.02856 19.78506 5.54548
308 1 2.12267 15.4711 6.83023
309 1 6.06371 12.86787 0.47091
310 1 7.74306 17.28999 8.98977
311 1 5.09772 24.04933 10.25976
312 1 1.55928 21.70876 1.3877787808e-17
313 1 2.1397 24.43664 2.05377
314 1 6.30199 19.54566 11.92346
315 1 6.8087 20.05054 8.66736
316 1 5.88938 20.36914 6.30147
317 1 5.15768 16.86658 5.36979
318 1 1.5625 12.74318 11.65828
319 1 3.43218 24.07938 7.65409
320 1 3.9995 24.16411 5.17345
321 2 1.69193 13.20684 9.2183
322 2 6.72464 21.7395 4.04387
323 2 4.63263 12.82998 6.40222
324 2 6.44916 16.85652 5.77308
325 2 7.88288 14.82385 3.32161
326 2 3.01116 15.58615 3.3019
327 2 0.67677 24.42971 7.20692
328 2 3.35278 19.52623 1.2231
329 2 4.07411 13.61513 3.83442
330 2 7.14747 15.21674 11.17892
331 2 3.61169 18.0716 3.71477
332 2 7.15304 21.05198 9.3951
333 2 4.03591 16.55742 10.86195
334 2 4.11634 14.73302 0.77813
335 2 0.36661 13.12927 5.12706
336 2 4.85367 21.13534 10.02482
337 2 0.72205 23.02617 9.28836
338 2 6.73896 15.5993 1.77495
339 2 5.42902 18.38345 9.6295
340 2 3.02352 18.32842 7.99473
341 2 2.5337 13.5632 11.90481
342 2 7.78613 17.11213 1.06695
343 2 3.3688 19.45287 10.48261
344 2 6.31357 12.21832 9.89378
345 2 2.15309 17.39547 9.78653
346 2 5.13257 23.83251 2.66118
347 2 4.45751 14.16337 10.53472
348 2 4.38299 15.98391 5.10288
349 2 6.32113 18.57 1.47577
350 2 2.68249 23.35528 6.95027
351 2 2.18015 18.83137 5.65156
352 2 0.9545 17.99327 3.11042
353 2 5.8806 15.79397 9.76292
354 2 2.76896 24.23684 4.80116
355 2 0.72711 19.26249 10.99668
356 2 0.70812 23.35103 4.28246
357 2 4.40485 17.79969 6.45236
358 2 5.67289 14.54332 4.17174
359 2 4.51711 23.80534 8.27118
360 2 4.98616 16.88892 0.71763
361 2 0.68575 13.97863 0.94494
362 2 1.48629 20.49335 7.31081
363 2 3.17552 22.93647 9.7686
364 2 7.32617 18.7674 5.38652
365 2 4.6095 14.39429 7.76369
366 2 2.54858 13.018 2.97748
367 2 0.4817 18.65239 7.22481
368 2 4.82298 20.73033 2.15667
369 2 7.60559 23.08261 6.72747
370 2 6.50513 17.02995 3.45033
371 2 0.69072 15.15505 9.41016
372 2 2.28224 15.67733 0.28439
373 2 5.794 20.26193 7.75474
374 2 3.93647 21.38105 6.51755
375 2 1.7579 16.22631 7.64225
376 2 2.21717 14.58497 6.12967
377 2 3.18292 20.80657 3.35579
378 2 3.41855 21.93261 0.27011
379 2 7.11171 14.7931 7.63229
380 2 1.50031 23.36103 1.5821
381 2 0.68338 21.33598 2.61476
382 2 2.59285 17.14797 1.74778
383 2 6.57126 19.67511 3.55116
384 2 4.12206 19.81815 6.52601
385 1 2.65403 22.07568 21.69983
386 1 6.74608 23.91726 13.07122
387 1 -8.881784197e-16 15.53539 20.27696
388 1 7.64967 24.16121 15.9887
389 1 6.14404 23.22147 13.87959
390 1 6.37407 16.36114 14.44653
391 1 7.12944 12.9257 14.45317
392 1 3.76382 20.49624 21.77821
393 1 3.49411 24.07443 13.7088
394 1 6.68934 13.14995 19.42824
395 1 6.62038 17.31276 23.48985
396 1 1.09813 17.53374 21.28561
397 1 0.11635 12.70765 18.24862
398 1 7.50255 21.89229 19.03915
399 1 2.44641 13.10739 20.3055
400 1 4.12584 18.58855 19.61272
401 1 4.73361 13.49644 12.80357
402 1 4.98856 22.90895 23.13259
403 1 6.60969 18.49419 21.29798
404 1 0.07206 21.28059 13.48037
405 1 3.24948 22.55834 13.23209
406 1 5.05878 16.65607 21.90372
407 1 5.99746 21.27733 13.59485
408 1 6.36403 18.58371 22.69167
409 1 5.54363 13.5918 20.28786
410 1 1.99635 15.21204 15.78184
411 1 0.35111 20.82085 18.81754
412 1 0.00763 13.97931 14.15986
413 1 5.80491 22.27183 16.6971
414 1 6.90758 17.68351 12.48812
415 1 1.8013 15.74714 23.36723
416 1 7.80249 16.08972 23.19385
417 1 5.02792 14.11249 21.3941
418 1 5.60222 20.73584 12.15534
419 1 5.53679 19.19035 15.66092
420 1 4.06237 18.73516 12.76255
421 1 3.65831 21.44102 14.48368
422 1 6.739 21.24639 22.92403
423 1 1.02583 21.96209 21.67454
424 1 3.6906 17.16953 12.84721
425 1 5.25861 21.72552 18.00995
426 1 5.78754 21.95395 23.46885
427 1 4.32174 24.30708 12.3802
428 1 1.42688 18.97392 14.6851
429 1 1.36552 18.79389 18.3722
430 1 4.64369 23.38514 16.3253
431 1 0.62143 21.40056 23.26074
432 1 1.03277 20.09954 23.69105
433 1 4.77676 14.18674 16.68748
434 1 4.66025 18.18741 15.48025
435 1 7.02856 19.78506 17.46894
436 1 2.12267 15.4711 18.75369
437 1 6.06371 12.86787 12.39437
438 1 7.74306 17.28999 20.91323
439 1 5.09772 24.04933 22.18322
440 1 1.55928 21.70876 11.92346
441 1 2.1397 24.43664 13.97723
442 1 6.30199 19.54566 23.84692
443 1 6.8087 20.05054 20.59082
444 1 5.88938 20.36914 18.22493
445 1 5.15768 16.86658 17.29325
446 1 1.5625 12.74318 23.58174
447 1 3.43218 24.07938 19.57755
448 1 3.9995 24.16411 17.09691
449 2 1.69193 13.20684 21.14176
450 2 6.72464 21.7395 15.96733
451 2 4.63263 12.82998 18.32568
452 2 6.44916 16.85652 17.69654
453 2 7.88288 14.82385 15.24507
454 2 3.01116 15.58615 15.22536
455 2 0.67677 24.42971 19.13038
456 2 3.35278 19.52623 13.14656
457 2 4.07411 13.61513 15.75788
458 2 7.14747 15.21674 23.10238
459 2 3.61169 18.0716 15.63823
460 2 7.15304 21.05198 21.31856
461 2 4.03591 16.55742 22.78541
462 2 4.11634 14.73302 12.70159
463 2 0.36661 13.12927 17.05052
464 2 4.85367 21.13534 21.94828
465 2 0.72205 23.02617 21.21182
466 2 6.73896 15.5993 13.69841
467 2 5.42902 18.38345 21.55296
468 2 3.02352 18.32842 19.91819
469 2 2.5337 13.5632 23.82827
470 2 7.78613 17.11213 12.99041
471 2 3.3688 19.45287 22.40607
472 2 6.31357 12.21832 21.81724
473 2 2.15309 17.39547 21.70999
474 2 5.13257 23.83251 14.58464
475 2 4.45751 14.16337 22.45818
476 2 4.38299 15.98391 17.02634
477 2 6.32113 18.57 13.39923
478 2 2.68249 23.35528 18.87373
479 2 2.18015 18.83137 17.57502
480 2 0.9545 17.99327 15.03388
481 2 5.8806 15.79397 21.68638
482 2 2.76896 24.23684 16.72462
483 2 0.72711 19.26249 22.92014
484 2 0.70812 23.35103 16.20592
485 2 4.40485 17.79969 18.37582
486 2 5.67289 14.54332 16.0952
487 2 4.51711 23.80534 20.19464
488 2 4.98616 16.88892 12.64109
489 2 0.68575 13.97863 12.8684
490 2 1.48629 20.49335 19.23427
491 2 3.17552 22.93647 21.69206
492 2 7.32617 18.7674 17.30998
493 2 4.6095 14.39429 19.68715
494 2 2.54858 13.018 14.90094
495 2 0.4817 18.65239 19.14827
496 2 4.82298 20.73033 14.08013
497 2 7.60559 23.08261 18.65093
498 2 6.50513 17.02995 15.37379
499 2 0.69072 15.15505 21.33362
500 2 2.28224 15.67733 12.20785
501 2 5.794 20.26193 19.6782
502 2 3.93647 21.38105 18.44101
503 2 1.7579 16.22631 19.56571
504 2 2.21717 14.58497 18.05313
505 2 3.18292 20.80657 15.27925
506 2 3.41855 21.93261 12.19357
507 2 7.11171 14.7931 19.55575
508 2 1.50031 23.36103 13.50556
509 2 0.68338 21.33598 14.53822
510 2 2.59285 17.14797 13.67124
511 2 6.57126 19.67511 15.47462
512 2 4.12206 19.81815 18.44947
513 1 10.53691 9.85736 9.77637
514 1 14.62896 11.69894 1.14776
515 1 7.88288 3.31707 8.3535
516 1 15.53255 11.94289 4.06524
517 1 14.02692 11.00315 1.95613
518 1 14.25695 4.14282 2.52307
519 1 15.01232 0.70738 2.52971
520 1 11.6467 8.27792 9.85475
521 1 11.37699 11.85611 1.78534
522 1 14.57222 0.93163 7.50478
523 1 14.50326 5.09444 11.56639
524 1 8.98101 5.31542 9.36215
525 1 7.99923 0.48933 6.32516
526 1 15.38543 9.67397 7.11569
527 1 10.32929 0.88907 8.38204
528 1 12.00872 6.37023 7.68926
529 1 12.61649 1.27812 0.88011
530 1 12.87144 10.69063 11.20913
531 1 14.49257 6.27587 9.37452
532 1 7.95494 9.06227 1.55691
533 1 11.13236 10.34002 1.30863
534 1 12.94166 4.43775 9.98026
535 1 13.88034 9.05901 1.67139
536 1 14.24691 6.36539 10.76821
537 1 13.42651 1.37348 8.3644
538 1 9.87923 2.99372 3.85838
539 1 8.23399 8.60253 6.89408
540 1 7.89051 1.76099 2.2364
541 1 13.68779 10.05351 4.77364
542 1 14.79046 5.46519 0.56466
543 1 9.68418 3.52882 11.44377
544 1 15.68537 3.8714 11.27039
545 1 12.9108 1.89417 9.47064
546 1 13.4851 8.51752 0.23188
547 1 13.41967 6.97203 3.73746
548 1 11.94525 6.51684 0.83909
549 1 11.54119 9.2227 2.56022
550 1 14.62188 9.02807 11.00057
551 1 8.90871 9.74377 9.75108
552 1 11.57348 4.95121 0.92375
553 1 13.14149 9.5072 6.08649
554 1 13.67042 9.73563 11.54539
555 1 12.20462 12.08876 0.45674
556 1 9.30976 6.7556 2.76164
557 1 9.2484 6.57557 6.44874
558 1 12.52657 11.16682 4.40184
559 1 8.50431 9.18224 11.33728
560 1 8.91565 7.88122 11.76759
561 1 12.65964 1.96842 4.76402
562 1 12.54313 5.96909 3.55679
563 1 14.91144 7.56674 5.54548
564 1 10.00555 3.25278 6.83023
565 1 13.94659 0.64955 0.47091
566 1 15.62594 5.07167 8.98977
567 1 12.9806 11.83101 10.25976
568 1 9.44216 9.49044 1.3877787808e-17
569 1 10.02258 12.21832 2.05377
570 1 14.18487 7.32734 11.92346
571 1 14.69158 7.83222 8.66736
572 1 13.77226 8.15082 6.30147
573 1 13.04056 4.64826 5.36979
574 1 9.44538 0.52486 11.65828
575 1 11.31506 11.86106 7.65409
576 1 11.88238 11.94579 5.17345
577 2 9.57481 0.98852 9.2183
578 2 14.60752 9.52118 4.04387
579 2 12.51551 0.61166 6.40222
580 2 14.33204 4.6382 5.77308
581 2 15.76576 2.60553 3.32161
582 2 10.89404 3.36783 3.3019
583 2 8.55965 12.21139 7.20692
584 2 11.23566 7.30791 1.2231
585 2 11.95699 1.39681 3.83442
586 2 15.03035 2.99842 11.17892
587 2 11.49457 5.85328 3.71477
588 2 15.03592 8.83366 9.3951
589 2 11.91879 4.3391 10.86195
590 2 11.99922 2.5147 0.77813
591 2 8.24949 0.91095 5.12706
592 2 12.73655 8.91702 10.02482
593 2 8.60493 10.80785 9.28836
594 2 14.62184 3.38098 1.77495
595 2 13.3119 6.16513 9.6295
596 2 10.9064 6.1101 7.99473
597 2 10.41658 1.34488 11.90481
598 2 15.66901 4.89381 1.06695
599 2 11.25168 7.23455 10.48261
600 2 14.19645 0.0 9.89378
601 2 10.03597 5.17715 9.78653
602 2 13.01545 11.61419 2.66118
603 2 12.34039 1.94505 10.53472
604 2 12.26587 3.76559 5.10288
605 2 14.20401 6.35168 1.47577
606 2 10.56537 11.13696 6.95027
607 2 10.06303 6.61305 5.65156
608 2 8.83738 5.77495 3.11042
609 2 13.76348 3.57565 9.76292
610 2 10.65184 12.01852 4.80116
611 2 8.60999 7.04417 10.99668
612 2 8.591 11.13271 4.28246
613 2 12.28773 5.58137 6.45236
614 2 13.55577 2.325 4.17174
615 2 12.39999 11.58702 8.27118
616 2 12.86904 4.6706 0.71763
617 2 8.56863 1.76031 0.94494
618 2 9.36917 8.27503 7.31081
619 2 11.0584 10.71815 9.7686
620 2 15.20905 6.54908 5.38652
621 2 12.49238 2.17597 7.76369
622 2 10.43146 0.79968 2.97748
623 2 8.36458 6.43407 7.22481
624 2 12.70586 8.51201 2.15667
625 2 15.48847 10.86429 6.72747
626 2 14.38801 4.81163 3.45033
627 2 8.5736 2.93673 9.41016
628 2 10.16512 3.45901 0.28439
629 2 13.67688 8.04361 7.75474
630 2 11.81935 9.16273 6.51755
631 2 9.64078 4.00799 7.64225
632 2 10.10005 2.36665 6.12967
633 2 11.0658 8.58825 3.35579
634 2 11.30143 9.71429 0.27011
635 2 14.99459 2.57478 7.63229
636 2 9.38319 11.14271 1.5821
637 2 8.56626 9.11766 2.61476
638 2 10.47573 4.92965 1.74778
639 2 14.45414 7.45679 3.55116
640 2 12.00494 7.59983 6.52601
641 1 10.53691 9.85736 21.69983
642 1 14.62896 11.69894 13.07122
643 1 7.88288 3.31707 20.27696
644 1 15.53255 11.94289 15.9887
645 1 14.02692 11.00315 13.87959
646 1 14.25695 4.14282 14.44653
647 1 15.01232 0.70738 14.45317
648 1 11.6467 8.27792 21.77821
649 1 11.37699 11.85611 13.7088
650 1 14.57222 0.93163 19.42824
651 1 14.50326 5.09444 23.48985
652 1 8.98101 5.31542 21.28561
653 1 7.99923 0.48933 18.24862
654 1 15.38543 9.67397 19.03915
655 1 10.32929 0.88907 20.3055
656 1 12.00872 6.37023 19.61272
657 1 12.61649 1.27812 12.80357
658 1 12.87144 10.69063 23.13259
659 1 14.49257 6.27587 21.29798
660 1 7.95494 9.06227 13.48037
661 1 11.13236 10.34002 13.23209
662 1 12.94166 4.43775 21.90372
663 1 13.88034 9.05901 13.59485
664 1 14.24691 6.36539 22.69167
665 1 13.42651 1.37348 20.28786
666 1 9.87923 2.99372 15.78184
667 1 8.23399 8.60253 18.81754
668 1 7.89051 1.76099 14.15986
669 1 13.68779 10.05351 16.6971
670 1 14.79046 5.46519 12.48812
671 1 9.68418 3.52882 23.36723
672 1 15.68537 3.8714 23.19385
673 1 12.9108 1.89417 21.3941
674 1 13.4851 8.51752 12.15534
675 1 13.41967 6.97203 15.66092
676 1 11.94525 6.51684 12.76255
677 1 11.54119 9.2227 14.48368
678 1 14.62188 9.02807 22.92403
679 1 8.90871 9.74377 21.67454
680 1 11.57348 4.95121 12.84721
681 1 13.14149 9.5072 18.00995
682 1 13.67042 9.73563 23.46885
683 1 12.20462 12.08876 12.3802
684 1 9.30976 6.7556 14.6851
685 1 9.2484 6.57557 18.3722
686 1 12.52657 11.16682 16.3253
687 1 8.50431 9.18224 23.26074
688 1 8.91565 7.88122 23.69105
689 1 12.65964 1.96842 16.68748
690 1 12.54313 5.96909 15.48025
691 1 14.91144 7.56674 17.46894
692 1 10.00555 3.25278 18.75369
693 1 13.94659 0.64955 12.39437
694 1 15.62594 5.07167 20.91323
695 1 12.9806 11.83101 22.18322
696 1 9.44216 9.49044 11.92346
697 1 10.02258 12.21832 13.97723
698 1 14.18487 7.32734 23.84692
699 1 14.69158 7.83222 20.59082
700 1 13.77226 8.15082 18.22493
701 1 13.04056 4.64826 17.29325
702 1 9.44538 0.52486 23.58174
703 1 11.31506 11.86106 19.57755
704 1 11.88238 11.94579 17.09691
705 2 9.57481 0.98852 21.14176
706 2 14.60752 9.52118 15.96733
707 2 12.51551 0.61166 18.32568
708 2 14.33204 4.6382 17.69654
709 2 15.76576 2.60553 15.24507
710 2 10.89404 3.36783 15.22536
711 2 8.55965 12.21139 19.13038
712 2 11.23566 7.30791 13.14656
713 2 11.95699 1.39681 15.75788
714 2 15.03035 2.99842 23.10238
715 2 11.49457 5.85328 15.63823
716 2 15.03592 8.83366 21.31856
717 2 11.91879 4.3391 22.78541
718 2 11.99922 2.5147 12.70159
719 2 8.24949 0.91095 17.05052
720 2 12.73655 8.91702 21.94828
721 2 8.60493 10.80785 21.21182
722 2 14.62184 3.38098 13.69841
723 2 13.3119 6.16513 21.55296
724 2 10.9064 6.1101 19.91819
725 2 10.41658 1.34488 23.82827
726 2 15.66901 4.89381 12.99041
727 2 11.25168 7.23455 22.40607
728 2 14.19645 0.0 21.81724
729 2 10.03597 5.17715 21.70999
730 2 13.01545 11.61419 14.58464
731 2 12.34039 1.94505 22.45818
732 2 12.26587 3.76559 17.02634
733 2 14.20401 6.35168 13.39923
734 2 10.56537 11.13696 18.87373
735 2 10.06303 6.61305 17.57502
736 2 8.83738 5.77495 15.03388
737 2 13.76348 3.57565 21.68638
738 2 10.65184 12.01852 16.72462
739 2 8.60999 7.04417 22.92014
740 2 8.591 11.13271 16.20592
741 2 12.28773 5.58137 18.37582
742 2 13.55577 2.325 16.0952
743 2 12.39999 11.58702 20.19464
744 2 12.86904 4.6706 12.64109
745 2 8.56863 1.76031 12.8684
746 2 9.36917 8.27503 19.23427
747 2 11.0584 10.71815 21.69206
748 2 15.20905 6.54908 17.30998
749 2 12.49238 2.17597 19.68715
750 2 10.43146 0.79968 14.90094
751 2 8.36458 6.43407 19.14827
752 2 12.70586 8.51201 14.08013
753 2 15.48847 10.86429 18.65093
754 2 14.38801 4.81163 15.37379
755 2 8.5736 2.93673 21.33362
756 2 10.16512 3.45901 12.20785
757 2 13.67688 8.04361 19.6782
758 2 11.81935 9.16273 18.44101
759 2 9.64078 4.00799 19.56571
760 2 10.10005 2.36665 18.05313
761 2 11.0658 8.58825 15.27925
762 2 11.30143 9.71429 12.19357
763 2 14.99459 2.57478 19.55575
764 2 9.38319 11.14271 13.50556
765 2 8.56626 9.11766 14.53822
766 2 10.47573 4.92965 13.67124
767 2 14.45414 7.45679 15.47462
768 2 12.00494 7.59983 18.44947
769 1 10.53691 22.07568 9.77637
770 1 14.62896 23.91726 1.14776
771 1 7.88288 15.53539 8.3535
772 1 15.53255 24.16121 4.06524
773 1 14.02692 23.22147 1.95613
774 1 14.25695 16.36114 2.52307
775 1 15.01232 12.9257 2.52971
776 1 11.6467 20.49624 9.85475
777 1 11.37699 24.07443 1.78534
778 1 14.57222 13.14995 7.50478
779 1 14.50326 17.31276 11.56639
780 1 8.98101 17.53374 9.36215
781 1 7.99923 12.70765 6.32516
782 1 15.38543 21.89229 7.11569
783 1 10.32929 13.10739 8.38204
784 1 12.00872 18.58855 7.68926
785 1 12.61649 13.49644 0.88011
786 1 12.87144 22.90895 11.20913
787 1 14.49257 18.49419 9.37452
788 1 7.95494 21.28059 1.55691
789 1 11.13236 22.55834 1.30863
790 1 12.94166 16.65607 9.98026
791 1 13.88034 21.27733 1.67139
792 1 14.24691 18.58371 10.76821
793 1 13.42651 13.5918 8.3644
794 1 9.87923 15.21204 3.85838
795 1 8.23399 20.82085 6.89408
796 1 7.89051 13.97931 2.2364
797 1 13.68779 22.27183 4.77364
798 1 14.79046 17.68351 0.56466
799 1 9.68418 15.74714 11.44377
800 1 15.68537 16.08972 11.27039
801 1 12.9108 14.11249 9.47064
802 1 13.4851 20.73584 0.23188
803 1 13.41967 19.19035 3.73746
804 1 11.94525 18.73516 0.83909
805 1 11.54119 21.44102 2.56022
806 1 14.62188 21.24639 11.00057
807 1 8.90871 21.96209 9.75108
808 1 11.57348 17.16953 0.92375
809 1 13.14149 21.72552 6.08649
810 1 13.67042 21.95395 11.54539
811 1 12.20462 24.30708 0.45674
812 1 9.30976 18.97392 2.76164
813 1 9.2484 18.79389 6.44874
814 1 12.52657 23.38514 4.40184
815 1 8.50431 21.40056 11.33728
816 1 8.91565 20.09954 11.76759
817 1 12.65964 14.18674 4.76402
818 1 12.54313 18.18741 3.55679
819 1 14.91144 19.78506 5.54548
820 1 10.00555 15.4711 6.83023
821 1 13.94659 12.86787 0.47091
822 1 15.62594 17.28999 8.98977
823 1 12.9806 24.04933 10.25976
824 1 9.44216 21.70876 1.3877787808e-17
825 1 10.02258 24.43664 2.05377
826 1 14.18487 19.54566 11.92346
827 1 14.69158 20.05054 8.66736
828 1 13.77226 20.36914 6.30147
829 1 13.04056 16.86658 5.36979
830 1 9.44538 12.74318 11.65828
831 1 11.31506 24.07938 7.65409
832 1 11.88238 24.16411 5.17345
833 2 9.57481 13.20684 9.2183
834 2 14.60752 21.7395 4.04387
835 2 12.51551 12.82998 6.40222
836 2 14.33204 16.85652 5.77308
837 2 15.76576 14.82385 3.32161
838 2 10.89404 15.58615 3.3019
839 2 8.55965 24.42971 7.20692
840 2 11.23566 19.52623 1.2231
841 2 11.95699 13.61513 3.83442
842 2 15.03035 15.21674 11.17892
843 2 11.49457 18.0716 3.71477
844 2 15.03592 21.05198 9.3951
845 2 11.91879 16.55742 10.86195
846 2 11.99922 14.73302 0.77813
847 2 8.24949 13.12927 5.12706
848 2 12.73655 21.13534 10.02482
849 2 8.60493 23.02617 9.28836
850 2 14.62184 15.5993 1.77495
851 2 13.3119 18.38345 9.6295
852 2 10.9064 18.32842 7.99473
853 2 10.41658 13.5632 11.90481
854 2 15.66901 17.11213 1.06695
855 2 11.25168 19.45287 10.48261
856 2 14.19645 12.21832 9.89378
857 2 10.03597 17.39547 9.78653
858 2 13.01545 23.83251 2.66118
859 2 12.34039 14.16337 10.53472
860 2 12.26587 15.98391 5.10288
861 2 14.20401 18.57 1.47577
862 2 10.56537 23.35528 6.95027
863 2 10.06303 18.83137 5.65156
864 2 8.83738 17.99327 3.11042
865 2 13.76348 15.79397 9.76292
866 2 10.65184 24.23684 4.80116
867 2 8.60999 19.26249 10.99668
868 2 8.591 23.35103 4.28246
869 2 12.28773 17.79969 6.45236
870 2 13.55577 14.54332 4.17174
871 2 12.39999 23.80534 8.27118
872 2 12.86904 16.88892 0.71763
873 2 8.56863 13.97863 0.94494
874 2 9.36917 20.49335 7.31081
875 2 11.0584 22.93647 9.7686
876 2 15.20905 18.7674 5.38652
877 2 12.49238 14.39429 7.76369
878 2 10.43146 13.018 2.97748
879 2 8.36458 18.65239 7.22481
880 2 12.70586 20.73033 2.15667
881 2 15.48847 23.08261 6.72747
882 2 14.38801 17.02995 3.45033
883 2 8.5736 15.15505 9.41016
884 2 10.16512 15.67733 0.28439
885 2 13.67688 20.26193 7.75474
886 2 11.81935 21.38105 6.51755
887 2 9.64078 16.22631 7.64225
888 2 10.10005 14.58497 6.12967
889 2 11.0658 20.80657 3.35579
890 2 11.30143 21.93261 0.27011
891 2 14.99459 14.7931 7.63229
892 2 9.38319 23.36103 1.5821
893 2 8.56626 21.33598 2.61476
894 2 10.47573 17.14797 1.74778
895 2 14.45414 19.67511 3.55116
896 2 12.00494 19.81815 6.52601
897 1 10.53691 22.07568 21.69983
898 1 14.62896 23.91726 13.07122
899 1 7.88288 15.53539 20.27696
900 1 15.53255 24.16121 15.9887
901 1 14.02692 23.22147 13.87959
902 1 14.25695 16.36114 14.44653
903 1 15.01232 12.9257 14.45317
904 1 11.6467 20.49624 21.77821
905 1 11.37699 24.07443 13.7088
906 1 14.57222 13.14995 19.42824
907 1 14.50326 17.31276 23.48985
908 1 8.98101 17.53374 21.28561
909 1 7.99923 12.70765 18.24862
910 1 15.38543 21.89229 19.03915
911 1 10.32929 13.10739 20.3055
912 1 12.00872 18.58855 19.61272
913 1 12.61649 13.49644 12.80357
914 1 12.87144 22.90895 23.13259
915 1 14.49257 18.49419 21.29798
916 1 7.95494 21.28059 13.48037
917 1 11.13236 22.55834 13.23209
918 1 12.94166 16.65607 21.90372
919 1 13.88034 21.27733 13.59485
920 1 14.24691 18.58371 22.69167
921 1 13.42651 13.5918 20.28786
922 1 9.87923 15.21204 15.78184
923 1 8.23399 20.82085 18.81754
924 1 7.89051 13.97931 14.15986
925 1 13.68779 22.27183 16.6971
926 1 14.79046 17.68351 12.48812
927 1 9.68418 15.74714 23.36723
928 1 15.68537 16.08972 23.19385
929 1 12.9108 14.11249 21.3941
930 1 13.4851 20.73584 12.15534
931 1 13.41967 19.19035 15.66092
932 1 11.94525 18.73516 12.76255
933 1 11.54119 21.44102 14.48368
934 1 14.62188 21.24639 22.92403
935 1 8.90871 21.96209 21.67454
936 1 11.57348 17.16953 12.84721
937 1 13.14149 21.72552 18.00995
938 1 13.67042 21.95395 23.46885
939 1 12.20462 24.30708 12.3802
940 1 9.30976 18.97392 14.6851
941 1 9.2484 18.79389 18.3722
942 1 12.52657 23.38514 16.3253
943 1 8.50431 21.40056 23.26074
944 1 8.91565 20.09954 23.69105
945 1 12.65964 14.18674 16.68748
946 1 12.54313 18.18741 15.48025
947 1 14.91144 19.78506 17.46894
948 1 10.00555 15.4711 18.75369
949 1 13.94659 12.86787 12.39437
950 1 15.62594 17.28999 20.91323
951 1 12.9806 24.04933 22.18322
952 1 9.44216 21.70876 11.92346
953 1 10.02258 24.43664 13.97723
954 1 14.18487 19.54566 23.84692
955 1 14.69158 20.05054 20.59082
956 1 13.77226 20.36914 18.22493
957 1 13.04056 16.86658 17.29325