

6 atoms
2 atom types

0.0 5.5206741436 xlo xhi
0.0 3.5629822339 ylo yhi
0.0 3.53090636 zlo zhi
4.2169895187 -2.9133048939 -3.0859678988 xy xz yz

Masses

1 15.9994  # O
2 47.867  # Ti

Atoms  # atomic

1	2	0.008160704	3.785807359	-7.33537E-05
2	2	0.006984105	1.890070616	2.412545534
3	1	0.008889673	-0.007991045	2.000708404
4	1	0.008958883	1.888205054	0.411792899
5	1	1.904975594	1.888129151	2.824368322
6	1	0.008756446	1.888053459	4.413157621
