# LAMMPS data file written by OVITO Basic 3.10.6

512 atoms
1 atom types

0.0 14.69002024 xlo xhi
0.0 14.69002024 ylo yhi
0.0 14.69002024 zlo zhi

Masses

1 12.0107  # C

Atoms  # atomic

1 1 14.677133292 7.3178204025 7.3388839025
2 1 5.4962139019 5.4812892019 7.3384719025
3 1 7.3320447025 5.4812995019 5.5021879019
4 1 5.4960285019 7.3177689025 5.5023115019
5 1 0.9052958404 0.8912600303 0.9119362504
6 1 6.4143971021 6.3994724021 0.9116921404
7 1 0.9052484604 6.3996063021 6.4202990021
8 1 6.4142117021 0.8913290403 6.4206286021
9 1 7.3322713025 14.662442814 3.6658524012
10 1 5.4963375019 5.4815261019 3.6659245012
11 1 7.3323125025 5.4814128019 1.8297332006
12 1 5.4963993019 7.3176968025 1.8296714006
13 1 0.9056038104 0.8908119803 4.5843446015
14 1 6.4140263021 6.3995033021 4.5840047015
15 1 0.9054874204 6.3991428021 2.747648601
16 1 6.4141499021 0.8912569403 2.748050301
17 1 14.677172741 3.6455717012 14.683595409
18 1 5.4961418019 1.8098851006 14.6836202628
19 1 7.3324155025 1.8093186006 5.5024042019
20 1 5.4964817019 3.6453760012 5.5021364019
21 1 0.9053277704 4.5632399015 0.9117199504
22 1 6.4141499021 2.7278829009 0.9117879304
23 1 0.9055008104 2.7274194009 6.4204947021
24 1 6.4143250021 4.5630133015 6.4202475021
25 1 14.677536846 3.6451391012 3.6664704012
26 1 5.4964714019 1.8091641006 3.6662541012
27 1 14.677369986 1.8091435006 1.8301761006
28 1 5.4964817019 3.6457056012 1.8300319006
29 1 0.9055327404 4.5631472015 4.5842210015
30 1 6.4145310021 2.7274709009 4.5845197015
31 1 0.9054482804 2.7273267009 2.748266601
32 1 6.4145104021 4.5633120015 2.748019401
33 1 3.6601462012 7.3175320025 14.6835787332
34 1 1.8235120006 5.4816085019 7.3387191025
35 1 3.6601977012 5.4810832019 5.5023218019
36 1 1.8236665006 14.662455071 5.5022806019
37 1 4.5782470015 0.8915041403 0.9114088904
38 1 2.7413862009 6.3996269021 0.9119331604
39 1 4.5782264015 6.3995548021 6.4204226021
40 1 2.7418188009 0.8912590003 6.4206080021
41 1 3.6601874012 14.662615957 3.6658936012
42 1 1.8237283006 5.4811656019 3.6658215012
43 1 3.6599196012 5.4814952019 1.8299598006
44 1 1.8237283006 14.662458058 1.8300319006
45 1 4.5782470015 0.8914835403 4.5841489015
46 1 2.7420454009 6.3992046021 4.5839532015
47 1 4.5781337015 6.3994518021 2.747648601
48 1 2.7417261009 0.8912311903 2.747782501
49 1 3.6598681012 3.6456644012 14.6837876482
50 1 1.8238519006 1.8093083006 14.683927038
51 1 3.6601565012 1.8096791006 5.5024248019
52 1 1.8238725006 3.6451391012 5.5024763019
53 1 4.5778556015 4.5635180015 0.9118528204
54 1 2.7417158009 2.7274091009 0.9117529104
55 1 4.5781337015 2.7278829009 6.4205256021
56 1 2.7416334009 4.5632090015 6.4205771021
57 1 3.6602595012 3.6450773012 3.6659657012
58 1 1.8238725006 1.8089375006 3.6659760012
59 1 3.6601668012 1.8093083006 1.8298774006
60 1 1.8238004006 3.6453348012 1.8302379006
61 1 4.5784942015 4.5630133015 4.5838708015
62 1 2.7418394009 2.7272546009 4.5841283015
63 1 4.5783191015 2.7275018009 2.747998801
64 1 2.7418497009 4.5632090015 2.747823701
65 1 14.677123198 7.3177998025 14.683886005
66 1 5.4962036019 5.4812789019 14.683474005
67 1 7.3320344025 5.4812892019 12.8470870043
68 1 5.4960285019 7.3177586025 12.8471900043
69 1 0.9053112904 0.8912693003 8.2568302027
70 1 6.4143868021 6.3994621021 8.2565727027
71 1 0.9052505204 6.3995960021 13.7652290046
72 1 6.4142220021 0.8913383103 13.7655380046
73 1 7.3322713025 14.662397906 11.0105970037
74 1 5.4963581019 5.4815467019 11.0107000037
75 1 7.3323022025 5.4814437019 9.1745190031
76 1 5.4963787019 7.3176865025 9.1744675031
77 1 0.9055966004 0.8907573903 11.9291510041
78 1 6.4140469021 6.3994930021 11.9288420041
79 1 0.9054760904 6.3991325021 10.0924035035
80 1 6.4141705021 0.8912085303 10.0928567035
81 1 14.677167385 3.6455614012 7.3385440025
82 1 5.4961315019 1.8098748006 7.3386161025
83 1 7.3324155025 1.8093289006 12.8471900043
84 1 5.4965126019 3.6453760012 12.8469840043
85 1 0.9053123204 4.5632708015 8.2565933027
86 1 6.4141705021 2.7279035009 8.2566963027
87 1 0.9055080204 2.7273885009 13.7654350046
88 1 6.4143353021 4.5629927015 13.7652290046
89 1 14.677537979 3.6451906012 11.0112150037
90 1 5.4965023019 1.8091435006 11.0110090037
91 1 14.677392543 1.8091435006 9.1750237031
92 1 5.4965023019 3.6457159012 9.1748692031
93 1 0.9055183204 4.5631781015 11.9290480041
94 1 6.4145825021 2.7274709009 11.9293570041
95 1 0.9054266504 2.7273576009 10.0930936035
96 1 6.4145516021 4.5633532015 10.0928052035
97 1 3.6601565012 7.3175423025 7.3385234025
98 1 1.8235120006 5.4815982019 14.683783005
99 1 3.6601977012 5.4810935019 12.8471900043
100 1 1.8236562006 14.662414592 12.8470870043
101 1 4.5782367015 0.8915123803 8.2563255027
102 1 2.7413965009 6.3996269021 8.2568096027
103 1 4.5782470015 6.3995754021 13.7653320046
104 1 2.7418188009 0.8912394303 13.7655380046
105 1 3.6601874012 14.662561264 11.0107000037
106 1 1.8236974006 5.4811965019 11.0105970037
107 1 3.6599299012 5.4815158019 9.1747559031
108 1 1.8237386006 14.662431484 9.1748486031
109 1 4.5782573015 0.8914258603 11.9289450041
110 1 2.7420454009 6.3991943021 11.9287390041
111 1 4.5781440015 6.3994415021 10.0924138035
112 1 2.7417261009 0.8911704203 10.0926198035
113 1 3.6598681012 3.6456747012 7.3388324025
114 1 1.8238519006 1.8093083006 7.3389457025
115 1 3.6601462012 1.8096688006 12.8471900043
116 1 1.8238622006 3.6451494012 12.8472930043
117 1 4.5778762015 4.5635283015 8.2567890027
118 1 2.7416849009 2.7274400009 8.2567066027
119 1 4.5781440015 2.7278623009 13.7654350046
120 1 2.7416334009 4.5632193015 13.7654350046
121 1 3.6602492012 3.6451391012 11.0108030037
122 1 1.8238416006 1.8089066006 11.0108030037
123 1 3.6601668012 1.8092980006 9.1747456031
124 1 1.8237695006 3.6453554012 9.1750752031
125 1 4.5785251015 4.5630545015 11.9286360041
126 1 2.7418188009 2.7272546009 11.9289450041
127 1 4.5783294015 2.7275224009 10.0928464035
128 1 2.7418291009 4.5632708015 10.0926198035
129 1 14.677071286 14.662977005 7.3389663025
130 1 5.4962757019 12.8257660043 7.3384925025
131 1 7.3319108025 12.8254570043 5.5023115019
132 1 5.4961830019 14.662771005 5.5023218019
133 1 0.9052649404 8.2357976027 0.9119105004
134 1 6.4143559021 13.7442170046 0.9117086204
135 1 0.9052453704 13.7442170046 6.4203814021
136 1 6.4141499021 8.2357461027 6.4206595021
137 1 7.3322095025 7.3176968025 3.6659760012
138 1 5.4963375019 12.8257660043 3.6658627012
139 1 7.3322301025 12.8256630043 1.8297023006
140 1 5.4962551019 14.662874005 1.8297435006
141 1 0.9056285304 8.2355813027 4.5843240015
142 1 6.4140160021 13.7441140046 4.5839635015
143 1 0.9055780604 13.7435990046 2.747648601
144 1 6.4141705021 8.2357667027 2.748070901
145 1 14.676938519 10.9895850037 14.6835785478
146 1 5.4961624019 9.1539190031 14.6836133104
147 1 7.3323022025 9.1535997031 5.5025381019
148 1 5.4964817019 10.9893790037 5.5024145019
149 1 0.9052474304 11.907315004 0.9115695704
150 1 6.4140881021 10.0717108034 0.9116952304
151 1 0.9053772104 10.0714533034 6.4206286021
152 1 6.4142220021 11.907315004 6.4203814021
153 1 14.677298504 10.9891730037 3.6664807012
154 1 5.4964714019 9.1534864031 3.6662129012
155 1 14.677369471 9.1534761031 1.8300834006
156 1 5.4964714019 10.9897910037 1.8298259006
157 1 0.9054472504 11.907006004 4.5843343015
158 1 6.4143559021 10.0714842034 4.5846330015
159 1 0.9053432204 10.0715254034 2.748153301
160 1 6.4143971021 11.907418004 2.747885501
161 1 3.6601050012 14.662668005 14.6835883122
162 1 1.8235326006 12.8258690043 7.3386676025
163 1 3.6602698012 12.8252510043 5.5024866019
164 1 1.8237283006 7.3176556025 5.5023527019
165 1 4.5782058015 8.2358594027 0.9115294004
166 1 2.7414274009 13.7443200046 0.9118332504
167 1 4.5782985015 13.7444230046 6.4204020021
168 1 2.7418497009 8.2357976027 6.4206286021
169 1 3.6601874012 7.3177792025 3.6658421012
170 1 1.8237798006 12.8251480043 3.6658421012
171 1 3.6599402012 12.8257660043 1.8299392006
172 1 1.8236871006 7.3176659025 1.8299907006
173 1 4.5782573015 8.2359830027 4.5841283015
174 1 2.7420969009 13.7435990046 4.5840871015
175 1 4.5781131015 13.7441140046 2.747658901
176 1 2.7416849009 8.2358697027 2.747741301
177 1 3.6600947012 10.9896880037 14.6838155302
178 1 1.8239034006 9.1535997031 14.6838965294
179 1 3.6603007012 9.1539808031 5.5025072019
180 1 1.8238931006 10.9891730037 5.5027544019
181 1 4.5779689015 11.907727004 0.9117251004
182 1 2.7418909009 10.0714430034 0.9116303404
183 1 4.5782779015 10.0717211034 6.4206801021
184 1 2.7418291009 11.907315004 6.4207007021
185 1 3.6605067012 10.9891730037 3.6659863012
186 1 1.8238725006 9.1534761031 3.6660069012
187 1 3.6603110012 9.1535894031 1.8297538006
188 1 1.8238107006 10.9893790037 1.8300319006
189 1 4.5786487015 11.907109004 4.5839944015
190 1 2.7419733009 10.0714739034 4.5842519015
191 1 4.5784530015 10.0714945034 2.747854601
192 1 2.7420351009 11.907109004 2.747710401
193 1 14.677062325 14.662977005 14.683989005
194 1 5.4962757019 12.8257660043 14.683577005
195 1 7.3319005025 12.8254570043 12.8471900043
196 1 5.4961830019 14.662771005 12.8471900043
197 1 0.9052824504 8.2357976027 8.2567993027
198 1 6.4143456021 13.7442170046 8.2565830027
199 1 0.9052505204 13.7442170046 13.7653320046
200 1 6.4141602021 8.2357564027 13.7655380046
201 1 7.3321992025 7.3176453025 11.0107000037
202 1 5.4963581019 12.8257660043 11.0105970037
203 1 7.3322198025 12.8256630043 9.1744881031
204 1 5.4962448019 14.662874005 9.1745499031
205 1 0.9056182304 8.2355298027 11.9291510041
206 1 6.4140366021 13.7441140046 11.9288420041
207 1 0.9055636404 13.7435990046 10.0924138035
208 1 6.4141911021 8.2357049027 10.0928567035
209 1 14.676935738 10.9895850037 7.3385234025
210 1 5.4961521019 9.1539087031 7.3386058025
211 1 7.3323022025 9.1536100031 12.8473960043
212 1 5.4965126019 10.9893790037 12.8471900043
213 1 0.9052309504 11.907315004 8.2564388027
214 1 6.4141087021 10.0717108034 8.2566036027
215 1 0.9053782404 10.0714327034 13.7655380046
216 1 6.4142323021 11.907315004 13.7653320046
217 1 14.677297474 10.9892760037 11.0112150037
218 1 5.4964920019 9.1534658031 11.0110090037
219 1 14.677390277 9.1534658031 9.1749207031
220 1 5.4964920019 10.9897910037 9.1746529031
221 1 0.9054318004 11.907006004 11.9291510041
222 1 6.4144074021 10.0715048034 11.9294600041
223 1 0.9053226204 10.0715460034 10.0929803035
224 1 6.4144383021 11.907418004 10.0926713035
225 1 3.6601153012 14.662668005 7.3385440025
226 1 1.8235429006 12.8258690043 14.683680005
227 1 3.6602698012 12.8252510043 12.8472930043
228 1 1.8237283006 7.3176144025 12.8471900043
229 1 4.5781955015 8.2358594027 8.2564491027
230 1 2.7414377009 13.7443200046 8.2567066027
231 1 4.5783191015 13.7444230046 13.7653320046
232 1 2.7418497009 8.2357873027 13.7655380046
233 1 3.6601874012 7.3177277025 11.0105970037
234 1 1.8237489006 12.8251480043 11.0105970037
235 1 3.6599608012 12.8257660043 9.1747353031
236 1 1.8237077006 7.3176350025 9.1748074031
237 1 4.5782676015 8.2359315027 11.9289450041
238 1 2.7420969009 13.7435990046 11.9289450041
239 1 4.5781131015 13.7441140046 10.0924447035
240 1 2.7416849009 8.2357976027 10.0925683035
241 1 3.6600844012 10.9896880037 7.3388633025
242 1 1.8239137006 9.1535894031 7.3389045025
243 1 3.6603007012 9.1539705031 12.8472930043
244 1 1.8238828006 10.9891730037 12.8476020043
245 1 4.5779792015 11.907727004 8.2566551027
246 1 2.7418600009 10.0714636034 8.2565830027
247 1 4.5782882015 10.0717211034 13.7655380046
248 1 2.7418291009 11.907315004 13.7656410046
249 1 3.6605067012 10.9891730037 11.0108030037
250 1 1.8238416006 9.1534555031 11.0108030037
251 1 3.6603007012 9.1535791031 9.1746117031
252 1 1.8237798006 10.9893790037 9.1748589031
253 1 4.5786796015 11.907109004 11.9288420041
254 1 2.7419527009 10.0714739034 11.9290480041
255 1 4.5784633015 10.0715151034 10.0926919035
256 1 2.7420042009 11.907109004 10.0925168035
257 1 7.3321065025 7.3177998025 7.3388736025
258 1 12.8409070043 5.4812995019 7.3384307025
259 1 14.677191005 5.4812995019 5.5021879019
260 1 12.8408040043 7.3177071025 5.5023115019
261 1 8.2501043027 0.8912487003 0.9118960804
262 1 13.7592550046 6.3994930021 0.9116674204
263 1 8.2499910027 6.3995651021 6.4202681021
264 1 13.7590490046 0.8913074103 6.4206492021
265 1 14.677294005 14.662407382 3.6658009012
266 1 12.8411130043 5.4815055019 3.6659348012
267 1 14.677294005 5.4813922019 1.8297229006
268 1 12.8411130043 7.3176865025 1.8296508006
269 1 8.2504545027 0.8908377303 4.5844064015
270 1 13.7589460046 6.3994724021 4.5840356015
271 1 8.2503412027 6.3991531021 2.747669201
272 1 13.7589460046 0.8912919603 2.748019401
273 1 7.3323125025 3.6455717012 14.6836037726
274 1 12.8408040043 1.8098645006 14.6836266592
275 1 14.677397005 1.8092877006 5.5023836019
276 1 12.8412160043 3.6454069012 5.5020952019
277 1 8.2502485027 4.5632811015 0.9117673304
278 1 13.7589460046 2.7278520009 0.9118301604
279 1 8.2504030027 2.7274297009 6.4204844021
280 1 13.7591520046 4.5630339015 6.4202166021
281 1 7.3324670025 3.6451185012 3.6664498012
282 1 12.8412160043 1.8091538006 3.6662541012
283 1 7.3323640025 1.8091332006 1.8301555006
284 1 12.8411130043 3.6457056012 1.8300834006
285 1 8.2502794027 4.5631472015 4.5842107015
286 1 13.7593580046 2.7274606009 4.5844888015
287 1 8.2502485027 2.7272958009 2.748266601
288 1 13.7593580046 4.5632914015 2.748019401
289 1 11.0047260037 7.3174805025 14.6835239682
290 1 9.1682051031 5.4816188019 7.3386676025
291 1 11.0048290037 5.4811141019 5.5022600019
292 1 9.1683184031 14.662425922 5.5022806019
293 1 11.922868004 0.8914371903 0.9113955004
294 1 10.0860072035 6.3996475021 0.9119084404
295 1 11.922868004 6.3995651021 6.4204020021
296 1 10.0864604035 0.8911745403 6.4205977021
297 1 11.0048290037 14.662568062 3.6659554012
298 1 9.1683596031 5.4811862019 3.6658730012
299 1 11.0045200037 5.4815364019 1.8300113006
300 1 9.1684420031 14.662436531 1.8300422006
301 1 11.922971004 0.8914124703 4.5841283015
302 1 10.0865840035 6.3992046021 4.5839738015
303 1 11.922765004 6.3994724021 2.747710401
304 1 10.0863574035 0.8911807203 2.747834001
305 1 11.0045200037 3.6457056012 14.6837327388
306 1 9.1686171031 1.8092774006 14.6839214452
307 1 11.0047260037 1.8096173006 5.5023733019
308 1 9.1685759031 3.6451700012 5.5024351019
309 1 11.922456004 4.5635386015 0.9118590004
310 1 10.0864295035 2.7273988009 0.9117683604
311 1 11.922765004 2.7279035009 6.4205050021
312 1 10.0862544035 4.5632605015 6.4205050021
313 1 11.0048290037 3.6451185012 3.6660172012
314 1 9.1685759031 1.8089066006 3.6659863012
315 1 11.0047260037 1.8092568006 1.8299289006
316 1 9.1685450031 3.6453245012 1.8302791006
317 1 11.923177004 4.5630339015 4.5838605015
318 1 10.0864707035 2.7272649009 4.5840871015
319 1 11.922868004 2.7275018009 2.748081201
320 1 10.0864707035 4.5632399015 2.747926701
321 1 7.3320962025 7.3177689025 14.683886005
322 1 12.8409070043 5.4812892019 14.683474005
323 1 14.677191005 5.4812995019 12.8470870043
324 1 12.8408040043 7.3176968025 12.8471900043
325 1 8.2501249027 0.8912569403 8.2567890027
326 1 13.7592550046 6.3994827021 8.2565418027
327 1 8.2499910027 6.3995651021 13.7652290046
328 1 13.7590490046 0.8913166803 13.7655380046
329 1 14.677294005 14.662360311 11.0105970037
330 1 12.8411130043 5.4815364019 11.0107000037
331 1 14.677294005 5.4814128019 9.1745087031
332 1 12.8410100043 7.3176659025 9.1744469031
333 1 8.2504442027 0.8907831403 11.9292540041
334 1 13.7589460046 6.3994621021 11.9288420041
335 1 8.2503309027 6.3991428021 10.0924241035
336 1 13.7590490046 0.8912435503 10.0928258035
337 1 7.3323125025 3.6455614012 7.3385543025
338 1 12.8408040043 1.8098542006 7.3386264025
339 1 14.677397005 1.8092877006 12.8471900043
340 1 12.8412160043 3.6454069012 12.8468810043
341 1 8.2502382027 4.5633223015 8.2566345027
342 1 13.7589460046 2.7278623009 8.2567375027
343 1 8.2504133027 2.7273988009 13.7654350046
344 1 13.7591520046 4.5630133015 13.7652290046
345 1 7.3324773025 3.6451700012 11.0112150037
346 1 12.8412160043 1.8091332006 11.0110090037
347 1 7.3323846025 1.8091332006 9.1749928031
348 1 12.8411130043 3.6457159012 9.1749207031
349 1 8.2502691027 4.5631884015 11.9290480041
350 1 13.7594610046 2.7274709009 11.9292540041
351 1 8.2502279027 2.7273164009 10.0930833035
352 1 13.7593580046 4.5633326015 10.0928155035
353 1 11.0047260037 7.3174805025 7.3384719025
354 1 9.1682154031 5.4816085019 14.683680005
355 1 11.0048290037 5.4811347019 12.8470870043
356 1 9.1683184031 14.662387194 12.8470870043
357 1 11.922868004 0.8914464603 8.2563152027
358 1 10.0860072035 6.3996475021 8.2567787027
359 1 11.922868004 6.3995857021 13.7653320046
360 1 10.0864707035 0.8911549703 13.7655380046
361 1 11.0048290037 14.662513472 11.0107000037
362 1 9.1683390031 5.4812171019 11.0107000037
363 1 11.0045200037 5.4815570019 9.1748074031
364 1 9.1684523031 14.662412635 9.1748589031
365 1 11.922971004 0.8913537603 11.9289450041
366 1 10.0865840035 6.3991943021 11.9287390041
367 1 11.922765004 6.3994621021 10.0924756035
368 1 10.0863574035 0.8911209803 10.0926713035
369 1 11.0044170037 3.6457159012 7.3387809025
370 1 9.1686068031 1.8092774006 7.3389354025
371 1 11.0047260037 1.8096070006 12.8471900043
372 1 9.1685656031 3.6451906012 12.8472930043
373 1 11.922456004 4.5635489015 8.2567890027
374 1 10.0863986035 2.7274194009 8.2567169027
375 1 11.922765004 2.7278829009 13.7653320046
376 1 10.0862647035 4.5632605015 13.7654350046
377 1 11.0048290037 3.6451803012 11.0108030037
378 1 9.1685450031 1.8088860006 11.0108030037
379 1 11.0047260037 1.8092465006 9.1747971031
380 1 9.1685141031 3.6453554012 9.1751164031
381 1 11.923177004 4.5630751015 11.9286360041
382 1 10.0864604035 2.7272649009 11.9288420041
383 1 11.922971004 2.7275224009 10.0929185035
384 1 10.0864501035 4.5632914015 10.0927228035
385 1 7.3320550025 14.662874005 7.3389663025
386 1 12.8409070043 12.8257660043 7.3384616025
387 1 14.677088005 12.8255600043 5.5023115019
388 1 12.8409070043 14.662771005 5.5023218019
389 1 8.2500837027 8.2357667027 0.9118734204
390 1 13.7591520046 13.7443200046 0.9116869904
391 1 8.2499807027 13.7442170046 6.4203505021
392 1 13.7590490046 8.2357358027 6.4206801021
393 1 14.677191005 7.3176556025 3.6659348012
394 1 12.8411130043 12.8257660043 3.6658833012
395 1 14.677191005 12.8255600043 1.8296714006
396 1 12.8409070043 14.662874005 1.8297229006
397 1 8.2504751027 8.2355916027 4.5843755015
398 1 13.7589460046 13.7441140046 4.5839841015
399 1 8.2504442027 13.7435990046 2.747669201
400 1 13.7590490046 8.2358079027 2.748029701
401 1 7.3320859025 10.9895850037 14.6835852428
402 1 12.8408040043 9.1538984031 14.6836250626
403 1 14.677294005 9.1535688031 5.5025278019
404 1 12.8412160043 10.9894820037 5.5023733019
405 1 8.2501764027 11.907315004 0.9116179804
406 1 13.7588430046 10.0716902034 0.9117281904
407 1 8.2502794027 10.0714430034 6.4206080021
408 1 13.7590490046 11.907315004 6.4203608021
409 1 7.3322301025 10.9891730037 3.6664601012
410 1 12.8411130043 9.1534864031 3.6662026012
411 1 7.3323434025 9.1534555031 1.8300628006
412 1 12.8411130043 10.9897910037 1.8298671006
413 1 8.2501970027 11.907006004 4.5843240015
414 1 13.7592550046 10.0715048034 4.5846124015
415 1 8.2501558027 10.0714636034 2.748163601
416 1 13.7592550046 11.907418004 2.747885501
417 1 11.0047260037 14.662565005 14.6835343814
418 1 9.1682463031 12.8258690043 7.3386264025
419 1 11.0048290037 12.8253540043 5.5024248019
420 1 9.1683699031 7.3176350025 5.5023630019
421 1 11.922765004 8.2357976027 0.9115118904
422 1 10.0860690035 13.7443200046 0.9118075004
423 1 11.922971004 13.7444230046 6.4203608021
424 1 10.0864810035 8.2357049027 6.4206183021
425 1 11.0047260037 7.3177380025 3.6658833012
426 1 9.1684214031 12.8251480043 3.6658936012
427 1 11.0045200037 12.8257660043 1.8300010006
428 1 9.1683802031 7.3176556025 1.8300010006
429 1 11.922971004 8.2359212027 4.5841077015
430 1 10.0866458035 13.7435990046 4.5840974015
431 1 11.922765004 13.7441140046 2.747720701
432 1 10.0863059035 8.2358079027 2.747782501
433 1 11.0047260037 10.9897910037 14.6837597352
434 1 9.1686480031 9.1535688031 14.6838901744
435 1 11.0049320037 9.1539190031 5.5024660019
436 1 9.1685965031 10.9891730037 5.5027029019
437 1 11.922559004 11.907830004 0.9117292204
438 1 10.0866046035 10.0714327034 0.9116509404
439 1 11.922868004 10.0717417034 6.4206595021
440 1 10.0864604035 11.907315004 6.4206286021
441 1 11.0051380037 10.9891730037 3.6660275012
442 1 9.1685759031 9.1534555031 3.6660172012
443 1 11.0049320037 9.1535379031 1.8297950006
444 1 9.1685553031 10.9893790037 1.8300834006
445 1 11.923280004 11.907109004 4.5839738015
446 1 10.0866046035 10.0714739034 4.5842004015
447 1 11.923074004 10.0715048034 2.747926701
448 1 10.0866561035 11.907109004 2.747823701
449 1 7.3320447025 14.662874005 14.683989005
450 1 12.8409070043 12.8257660043 14.683474005
451 1 14.677088005 12.8255600043 12.8471900043
452 1 12.8409070043 14.662771005 12.8471900043
453 1 8.2500940027 8.2357564027 8.2567581027
454 1 13.7591520046 13.7442170046 8.2565624027
455 1 8.2499910027 13.7442170046 13.7653320046
456 1 13.7590490046 8.2357461027 13.7656410046
457 1 14.677191005 7.3176144025 11.0107000037
458 1 12.8411130043 12.8257660043 11.0107000037
459 1 14.677191005 12.8256630043 9.1744675031
460 1 12.8409070043 14.662874005 9.1745396031
461 1 8.2504545027 8.2355401027 11.9291510041
462 1 13.7589460046 13.7441140046 11.9288420041
463 1 8.2504236027 13.7435990046 10.0924241035
464 1 13.7590490046 8.2357564027 10.0928258035
465 1 7.3320859025 10.9895850037 7.3385234025
466 1 12.8408040043 9.1538881031 7.3386161025
467 1 14.677294005 9.1535688031 12.8473960043
468 1 12.8412160043 10.9894820037 12.8471900043
469 1 8.2501558027 11.907315004 8.2564800027
470 1 13.7588430046 10.0717005034 8.2566345027
471 1 8.2502794027 10.0714327034 13.7655380046
472 1 13.7590490046 11.907315004 13.7653320046
473 1 7.3322301025 10.9892760037 11.0112150037
474 1 12.8412160043 9.1534658031 11.0110090037
475 1 7.3323640025 9.1534452031 9.1748898031
476 1 12.8411130043 10.9897910037 9.1747044031
477 1 8.2501764027 11.907006004 11.9291510041
478 1 13.7592550046 10.0715151034 11.9293570041
479 1 8.2501249027 10.0714842034 10.0929803035
480 1 13.7592550046 11.907418004 10.0926816035
481 1 11.0047260037 14.662565005 7.3384925025
482 1 9.1682566031 12.8258690043 14.683680005
483 1 11.0048290037 12.8253540043 12.8472930043
484 1 9.1683699031 7.3175938025 12.8471900043
485 1 11.922765004 8.2357976027 8.2564285027
486 1 10.0860690035 13.7443200046 8.2566757027
487 1 11.922971004 13.7444230046 13.7653320046
488 1 10.0864913035 8.2356946027 13.7655380046
489 1 11.0048290037 7.3176865025 11.0107000037
490 1 9.1683905031 12.8251480043 11.0107000037
491 1 11.0045200037 12.8257660043 9.1747971031
492 1 9.1684008031 7.3176350025 9.1748074031
493 1 11.922971004 8.2358697027 11.9288420041
494 1 10.0866458035 13.7435990046 11.9289450041
495 1 11.922765004 13.7441140046 10.0924962035
496 1 10.0863059035 8.2357461027 10.0926095035
497 1 11.0046230037 10.9897910037 7.3388015025
498 1 9.1686480031 9.1535688031 7.3389045025
499 1 11.0049320037 9.1539190031 12.8472930043
500 1 9.1685862031 10.9891730037 12.8474990043
501 1 11.922559004 11.907830004 8.2566654027
502 1 10.0865737035 10.0714327034 8.2566036027
503 1 11.922868004 10.0717314034 13.7655380046
504 1 10.0864707035 11.907315004 13.7655380046
505 1 11.0051380037 10.9892760037 11.0108030037
506 1 9.1685450031 9.1534349031 11.0108030037
507 1 11.0049320037 9.1535276031 9.1746529031
508 1 9.1685141031 10.9893790037 9.1749104031
509 1 11.923383004 11.907109004 11.9287390041
510 1 10.0865840035 10.0714842034 11.9289450041
511 1 11.923074004 10.0715254034 10.0927743035
512 1 10.0866355035 11.907109004 10.0926198035
