LAMMPS (29 Aug 2024 - Update 1)
########################################
# GENERAL CONTROLS
########################################

units           real                          # Required for CHIMES pair style
newton          on                            # Required for CHIMES pair style
atom_style      atomic                        # Required for CHIMES pair style
atom_modify     sort 0 0.0                    # Prevent sorting (to maintain 3b parent/neighbor relationships)
atom_modify     map array                     # May improve efficiency

neighbor        1.5 bin
neigh_modify    delay 0 every 1 check yes

########################################

read_data       /work2/08034/tg873340/stampede3/LAMMPS_test/lammps_data_files/diamond_3.21gcc_512atoms.data.in
Reading data file ...
  orthogonal box = (0 0 0) to (14.69002 14.69002 14.69002)
  1 by 1 by 1 MPI processor grid
  reading atoms ...
  512 atoms
  read_data CPU = 0.043 seconds
pair_style      chimesFF
pair_coeff      * * /work2/08034/tg873340/stampede3/LAMMPS_test/chimes_parameter_files/published_params.Carbon-2.0.Small.2+3+4b.Tersoff.txt



########################################
# RUN, DUMP, AND THERMO CONTROLS
########################################

fix             1 all nve


##### Compute total stress (virial + kinetic), convert it to system pressure and compare with actual system pressure

compute  pe_atom  all   pe/atom
compute  total_pe all   reduce sum c_pe_atom
variable total_pe equal c_total_pe


# Define the per-atom stress tensor (6 components: xx, yy, zz, xy, xz, yz)
compute stress_atom all stress/atom NULL

# Sum the per-atom stresses across all atoms to get the total stress tensor components
compute total_stress all reduce sum c_stress_atom[1] c_stress_atom[2] c_stress_atom[3] c_stress_atom[4] c_stress_atom[5] c_stress_atom[6]

# Define variables for the total stress tensor components
variable Sxx equal c_total_stress[1]
variable Syy equal c_total_stress[2]
variable Szz equal c_total_stress[3]
variable Sxy equal c_total_stress[4]
variable Sxz equal c_total_stress[5]
variable Syz equal c_total_stress[6]

# Calculate pressure from the stress tensor: Pressure = -(Sxx + Syy + Szz) / (3*volume)
variable pressure equal -(v_Sxx+v_Syy+v_Szz)/(3.0*vol)

##### Define thermo output

#thermo_style    custom step temp pe v_total_pe press v_pressure v_Sxx v_Syy v_Szz v_Sxy v_Sxz v_Syz
thermo_style    custom press v_pressure v_Sxx v_Syy v_Szz
thermo_modify   line one format float %20.5f flush yes
thermo          1


##### Run the simulation

timestep        0.5
run             1

CITE-CITE-CITE-CITE-CITE-CITE-CITE-CITE-CITE-CITE-CITE-CITE-CITE

Your simulation uses code contributions which should be cited:

- Type Label Framework: https://doi.org/10.1021/acs.jpcb.3c08419

@Article{Gissinger24,
 author = {Jacob R. Gissinger, Ilia Nikiforov, Yaser Afshar, Brendon Waters, Moon-ki Choi, Daniel S. Karls, Alexander Stukowski, Wonpil Im, Hendrik Heinz, Axel Kohlmeyer, and Ellad B. Tadmor},
 title = {Type Label Framework for Bonded Force Fields in LAMMPS},
 journal = {J. Phys. Chem. B},
 year =    2024,
 volume =  128,
 number =  13,
 pages =   {3282–-3297}
}

CITE-CITE-CITE-CITE-CITE-CITE-CITE-CITE-CITE-CITE-CITE-CITE-CITE

Generated 0 of 0 mixed pair_coeff terms from geometric mixing rule
Neighbor list info ...
  update: every = 1 steps, delay = 0 steps, check = yes
  max neighbors/atom: 2000, page size: 100000
  master list distance cutoff = 6.5
  ghost atom cutoff = 6.5
  binsize = 3.25, bins = 5 5 5
  1 neighbor lists, perpetual/occasional/extra = 1 0 0
  (1) pair chimesFF, perpetual
      attributes: full, newton on, ghost
      pair build: full/bin/ghost
      stencil: full/ghost/bin/3d
      bin: standard
Per MPI rank memory allocation (min/avg/max) = 5.493 | 5.493 | 5.493 Mbytes
    Press        v_pressure       v_Sxx          v_Syy          v_Szz     
       -309334.80261        -309334.80261      980608319.60224      980611227.33572      980608075.81303
       -309334.80107        -309334.80107      980608317.74927      980611215.54880      980608074.81356
Loop time of 1.69077 on 1 procs for 1 steps with 512 atoms

Performance: 0.026 ns/day, 939.317 hours/ns, 0.591 timesteps/s, 302.820 atom-step/s
99.8% CPU use with 1 MPI tasks x no OpenMP threads

MPI task timing breakdown:
Section |  min time  |  avg time  |  max time  |%varavg| %total
---------------------------------------------------------------
Pair    | 1.6905     | 1.6905     | 1.6905     |   0.0 | 99.99
Neigh   | 0          | 0          | 0          |   0.0 |  0.00
Comm    | 2.2822e-05 | 2.2822e-05 | 2.2822e-05 |   0.0 |  0.00
Output  | 0.00020805 | 0.00020805 | 0.00020805 |   0.0 |  0.01
Modify  | 9.067e-06  | 9.067e-06  | 9.067e-06  |   0.0 |  0.00
Other   |            | 1.341e-05  |            |       |  0.00

Nlocal:            512 ave         512 max         512 min
Histogram: 1 0 0 0 0 0 0 0 0 0
Nghost:           3223 ave        3223 max        3223 min
Histogram: 1 0 0 0 0 0 0 0 0 0
Neighs:              0 ave           0 max           0 min
Histogram: 1 0 0 0 0 0 0 0 0 0
FullNghs:        84992 ave       84992 max       84992 min
Histogram: 1 0 0 0 0 0 0 0 0 0

Total # of neighbors = 84992
Ave neighs/atom = 166
Neighbor list builds = 0
Dangerous builds = 0
 
Total wall time: 0:00:03
