LAMMPS (29 Aug 2024 - Update 1)
Reading data file ...
  triclinic box = (0 0 0) to (13.4 13.4 13.4) with tilt (0 0 0)
  3 by 3 by 4 MPI processor grid
  reading atoms ...
  216 atoms
  read_data CPU = 0.009 seconds
chimesFF: 
chimesFF: 01000011011010001001001010011010100010101010011 0100010101101110110011101101001011011101100101  
chimesFF: 
chimesFF:       _____  _      _____  __  __  ______   _____   ______                _                      
chimesFF:      / ____|| |    |_   _||  \/  ||  ____| / ____| |  ____|              (_)                    
chimesFF:     | |     | |__    | |  | \  / || |__   | (___   | |__    _ __    __ _  _  _ __    ___        
chimesFF:     | |     | '_ \   | |  | |\/| ||  __|   \___ \  |  __|  | '_ \  / _` || || '_ \  / _ \ 
chimesFF:     | |____ | | | | _| |_ | |  | || |____  ____) | | |____ | | | || (_| || || | | ||  __/        
chimesFF:      \_____||_| |_||_____||_|  |_||______||_____/  |______||_| |_| \__, ||_||_| |_| \___|     
chimesFF:                                                                     __/ |                        
chimesFF:                                                                    |___/                         
chimesFF: 
chimesFF:                      Copyright (C) 2020 R.K. Lindsey, L.E. Fried, N. Goldman                     
chimesFF: 
chimesFF: 01000011011010001001001010011010100010101010011 0100010101101110110011101101001011011101100101   
chimesFF: 

************************* WARNING (pair_style chimesFF) ************************
Assuming n-body interactions have longer cutoffs than all (n+1)-body interactions
************************* WARNING (pair_style chimesFF) ************************

chimesFF: Reading parameters from file: params.txt
chimesFF: Using respective 2, 3, and 4-body orders of: 25 15 0
chimesFF: Note: Ignoring polynomial domain; assuming [-1,1]
chimesFF: Will consider 1 atom types:
chimesFF: 	0 Si
chimesFF: Will consider 1 atom pair types
chimesFF: Detected version 2 pair specification (no S_DELTA)
chimesFF: 	0 Si Si
chimesFF: Read the following pair type information:
chimesFF: 	Si Si r_cut_in: 1.55000 r_cut_out: 6.00000 MORSE 2.33000
chimesFF: Will use cutoff style TERSOFF
 0.75000
chimesFF: Will use single atom energy offsets: 
chimesFF: 	1 Si -193.72788
chimesFF: Will use default penalty distance: 0.01000
chimesFF: Will use default penalty scaling: 10000.00000
chimesFF: Read 2B parameters for pair: 0 Si Si
chimesFF: 	0 115.95964
chimesFF: 	1 -17.34942
chimesFF: 	2 63.44563
chimesFF: 	3 -37.21316
chimesFF: 	4 28.47419
chimesFF: 	5 -39.03392
chimesFF: 	6 20.88981
chimesFF: 	7 -22.65555
chimesFF: 	8 13.56736
chimesFF: 	9 -15.13593
chimesFF: 	10 8.88977
chimesFF: 	11 -9.39202
chimesFF: 	12 4.42459
chimesFF: 	13 -4.64296
chimesFF: 	14 2.43306
chimesFF: 	15 -1.85271
chimesFF: 	16 1.41273
chimesFF: 	17 -1.07235
chimesFF: 	18 0.79347
chimesFF: 	19 -0.52244
chimesFF: 	20 0.42907
chimesFF: 	21 -0.21646
chimesFF: 	22 0.18116
chimesFF: 	23 -0.03949
chimesFF: 	24 0.03372
chimesFF: Built the following 2-body pair "slow" map:
chimesFF: 	0 SiSi(i: 0)
chimesFF: Built the following 2-body pair "fast" map:
chimesFF: 	SiSi: 0 0
chimesFF: Read 3B parameters for triplet: 0 Si Si Si
chimesFF: 	0 1 1 334.32069
chimesFF: 	1 0 1 334.32069
chimesFF: 	1 1 0 334.32069
chimesFF: 	0 1 2 63.89512
chimesFF: 	1 0 2 63.89512
chimesFF: 	0 2 1 63.89512
chimesFF: 	2 0 1 63.89512
chimesFF: 	1 2 0 63.89512
chimesFF: 	2 1 0 63.89512
chimesFF: 	0 1 3 109.37587
chimesFF: 	1 0 3 109.37587
chimesFF: 	0 3 1 109.37587
chimesFF: 	3 0 1 109.37587
chimesFF: 	1 3 0 109.37587
chimesFF: 	3 1 0 109.37587
chimesFF: 	0 1 4 39.38904
chimesFF: 	1 0 4 39.38904
chimesFF: 	0 4 1 39.38904
chimesFF: 	4 0 1 39.38904
chimesFF: 	1 4 0 39.38904
chimesFF: 	4 1 0 39.38904
chimesFF: 	0 1 5 12.57752
chimesFF: 	1 0 5 12.57752
chimesFF: 	0 5 1 12.57752
chimesFF: 	5 0 1 12.57752
chimesFF: 	1 5 0 12.57752
chimesFF: 	5 1 0 12.57752
chimesFF: 	0 1 6 -17.44356
chimesFF: 	1 0 6 -17.44356
chimesFF: 	0 6 1 -17.44356
chimesFF: 	6 0 1 -17.44356
chimesFF: 	1 6 0 -17.44356
chimesFF: 	6 1 0 -17.44356
chimesFF: 	0 1 7 48.07082
chimesFF: 	1 0 7 48.07082
chimesFF: 	0 7 1 48.07082
chimesFF: 	7 0 1 48.07082
chimesFF: 	1 7 0 48.07082
chimesFF: 	7 1 0 48.07082
chimesFF: 	0 1 8 -25.28140
chimesFF: 	1 0 8 -25.28140
chimesFF: 	0 8 1 -25.28140
chimesFF: 	8 0 1 -25.28140
chimesFF: 	1 8 0 -25.28140
chimesFF: 	8 1 0 -25.28140
chimesFF: 	0 1 9 0.00000
chimesFF: 	1 0 9 0.00000
chimesFF: 	0 9 1 0.00000
chimesFF: 	9 0 1 0.00000
chimesFF: 	1 9 0 0.00000
chimesFF: 	9 1 0 0.00000
chimesFF: 	0 1 10 0.62630
chimesFF: 	1 0 10 0.62630
chimesFF: 	0 10 1 0.62630
chimesFF: 	10 0 1 0.62630
chimesFF: 	1 10 0 0.62630
chimesFF: 	10 1 0 0.62630
chimesFF: 	0 1 11 -4.05903
chimesFF: 	1 0 11 -4.05903
chimesFF: 	0 11 1 -4.05903
chimesFF: 	11 0 1 -4.05903
chimesFF: 	1 11 0 -4.05903
chimesFF: 	11 1 0 -4.05903
chimesFF: 	0 1 12 -5.54941
chimesFF: 	1 0 12 -5.54941
chimesFF: 	0 12 1 -5.54941
chimesFF: 	12 0 1 -5.54941
chimesFF: 	1 12 0 -5.54941
chimesFF: 	12 1 0 -5.54941
chimesFF: 	0 1 13 1.25902
chimesFF: 	1 0 13 1.25902
chimesFF: 	0 13 1 1.25902
chimesFF: 	13 0 1 1.25902
chimesFF: 	1 13 0 1.25902
chimesFF: 	13 1 0 1.25902
chimesFF: 	0 1 14 -4.28083
chimesFF: 	1 0 14 -4.28083
chimesFF: 	0 14 1 -4.28083
chimesFF: 	14 0 1 -4.28083
chimesFF: 	1 14 0 -4.28083
chimesFF: 	14 1 0 -4.28083
chimesFF: 	0 2 2 0.00000
chimesFF: 	2 0 2 0.00000
chimesFF: 	2 2 0 0.00000
chimesFF: 	0 2 3 19.42159
chimesFF: 	2 0 3 19.42159
chimesFF: 	0 3 2 19.42159
chimesFF: 	3 0 2 19.42159
chimesFF: 	2 3 0 19.42159
chimesFF: 	3 2 0 19.42159
chimesFF: 	0 2 4 0.00000
chimesFF: 	2 0 4 0.00000
chimesFF: 	0 4 2 0.00000
chimesFF: 	4 0 2 0.00000
chimesFF: 	2 4 0 0.00000
chimesFF: 	4 2 0 0.00000
chimesFF: 	0 2 5 0.03302
chimesFF: 	2 0 5 0.03302
chimesFF: 	0 5 2 0.03302
chimesFF: 	5 0 2 0.03302
chimesFF: 	2 5 0 0.03302
chimesFF: 	5 2 0 0.03302
chimesFF: 	0 2 6 -3.94288
chimesFF: 	2 0 6 -3.94288
chimesFF: 	0 6 2 -3.94288
chimesFF: 	6 0 2 -3.94288
chimesFF: 	2 6 0 -3.94288
chimesFF: 	6 2 0 -3.94288
chimesFF: 	0 2 7 0.00000
chimesFF: 	2 0 7 0.00000
chimesFF: 	0 7 2 0.00000
chimesFF: 	7 0 2 0.00000
chimesFF: 	2 7 0 0.00000
chimesFF: 	7 2 0 0.00000
chimesFF: 	0 2 8 0.00000
chimesFF: 	2 0 8 0.00000
chimesFF: 	0 8 2 0.00000
chimesFF: 	8 0 2 0.00000
chimesFF: 	2 8 0 0.00000
chimesFF: 	8 2 0 0.00000
chimesFF: 	0 2 9 -4.00670
chimesFF: 	2 0 9 -4.00670
chimesFF: 	0 9 2 -4.00670
chimesFF: 	9 0 2 -4.00670
chimesFF: 	2 9 0 -4.00670
chimesFF: 	9 2 0 -4.00670
chimesFF: 	0 2 10 -13.26770
chimesFF: 	2 0 10 -13.26770
chimesFF: 	0 10 2 -13.26770
chimesFF: 	10 0 2 -13.26770
chimesFF: 	2 10 0 -13.26770
chimesFF: 	10 2 0 -13.26770
chimesFF: 	0 2 11 -0.37042
chimesFF: 	2 0 11 -0.37042
chimesFF: 	0 11 2 -0.37042
chimesFF: 	11 0 2 -0.37042
chimesFF: 	2 11 0 -0.37042
chimesFF: 	11 2 0 -0.37042
chimesFF: 	0 2 12 -8.72424
chimesFF: 	2 0 12 -8.72424
chimesFF: 	0 12 2 -8.72424
chimesFF: 	12 0 2 -8.72424
chimesFF: 	2 12 0 -8.72424
chimesFF: 	12 2 0 -8.72424
chimesFF: 	0 2 13 4.00376
chimesFF: 	2 0 13 4.00376
chimesFF: 	0 13 2 4.00376
chimesFF: 	13 0 2 4.00376
chimesFF: 	2 13 0 4.00376
chimesFF: 	13 2 0 4.00376
chimesFF: 	0 2 14 -1.76993
chimesFF: 	2 0 14 -1.76993
chimesFF: 	0 14 2 -1.76993
chimesFF: 	14 0 2 -1.76993
chimesFF: 	2 14 0 -1.76993
chimesFF: 	14 2 0 -1.76993
chimesFF: 	0 3 3 0.00000
chimesFF: 	3 0 3 0.00000
chimesFF: 	3 3 0 0.00000
chimesFF: 	0 3 4 23.55596
chimesFF: 	3 0 4 23.55596
chimesFF: 	0 4 3 23.55596
chimesFF: 	4 0 3 23.55596
chimesFF: 	3 4 0 23.55596
chimesFF: 	4 3 0 23.55596
chimesFF: 	0 3 5 -23.81361
chimesFF: 	3 0 5 -23.81361
chimesFF: 	0 5 3 -23.81361
chimesFF: 	5 0 3 -23.81361
chimesFF: 	3 5 0 -23.81361
chimesFF: 	5 3 0 -23.81361
chimesFF: 	0 3 6 0.00000
chimesFF: 	3 0 6 0.00000
chimesFF: 	0 6 3 0.00000
chimesFF: 	6 0 3 0.00000
chimesFF: 	3 6 0 0.00000
chimesFF: 	6 3 0 0.00000
chimesFF: 	0 3 7 9.87277
chimesFF: 	3 0 7 9.87277
chimesFF: 	0 7 3 9.87277
chimesFF: 	7 0 3 9.87277
chimesFF: 	3 7 0 9.87277
chimesFF: 	7 3 0 9.87277
chimesFF: 	0 3 8 -5.05470
chimesFF: 	3 0 8 -5.05470
chimesFF: 	0 8 3 -5.05470
chimesFF: 	8 0 3 -5.05470
chimesFF: 	3 8 0 -5.05470
chimesFF: 	8 3 0 -5.05470
chimesFF: 	0 3 9 -0.44530
chimesFF: 	3 0 9 -0.44530
chimesFF: 	0 9 3 -0.44530
chimesFF: 	9 0 3 -0.44530
chimesFF: 	3 9 0 -0.44530
chimesFF: 	9 3 0 -0.44530
chimesFF: 	0 3 10 0.00000
chimesFF: 	3 0 10 0.00000
chimesFF: 	0 10 3 0.00000
chimesFF: 	10 0 3 0.00000
chimesFF: 	3 10 0 0.00000
chimesFF: 	10 3 0 0.00000
chimesFF: 	0 3 11 -2.17718
chimesFF: 	3 0 11 -2.17718
chimesFF: 	0 11 3 -2.17718
chimesFF: 	11 0 3 -2.17718
chimesFF: 	3 11 0 -2.17718
chimesFF: 	11 3 0 -2.17718
chimesFF: 	0 3 12 -4.13003
chimesFF: 	3 0 12 -4.13003
chimesFF: 	0 12 3 -4.13003
chimesFF: 	12 0 3 -4.13003
chimesFF: 	3 12 0 -4.13003
chimesFF: 	12 3 0 -4.13003
chimesFF: 	0 3 13 3.10680
chimesFF: 	3 0 13 3.10680
chimesFF: 	0 13 3 3.10680
chimesFF: 	13 0 3 3.10680
chimesFF: 	3 13 0 3.10680
chimesFF: 	13 3 0 3.10680
chimesFF: 	0 3 14 -0.91547
chimesFF: 	3 0 14 -0.91547
chimesFF: 	0 14 3 -0.91547
chimesFF: 	14 0 3 -0.91547
chimesFF: 	3 14 0 -0.91547
chimesFF: 	14 3 0 -0.91547
chimesFF: 	0 4 4 -18.80246
chimesFF: 	4 0 4 -18.80246
chimesFF: 	4 4 0 -18.80246
chimesFF: 	0 4 5 16.94870
chimesFF: 	4 0 5 16.94870
chimesFF: 	0 5 4 16.94870
chimesFF: 	5 0 4 16.94870
chimesFF: 	4 5 0 16.94870
chimesFF: 	5 4 0 16.94870
chimesFF: 	0 4 6 -17.62097
chimesFF: 	4 0 6 -17.62097
chimesFF: 	0 6 4 -17.62097
chimesFF: 	6 0 4 -17.62097
chimesFF: 	4 6 0 -17.62097
chimesFF: 	6 4 0 -17.62097
chimesFF: 	0 4 7 -3.16098
chimesFF: 	4 0 7 -3.16098
chimesFF: 	0 7 4 -3.16098
chimesFF: 	7 0 4 -3.16098
chimesFF: 	4 7 0 -3.16098
chimesFF: 	7 4 0 -3.16098
chimesFF: 	0 4 8 0.00000
chimesFF: 	4 0 8 0.00000
chimesFF: 	0 8 4 0.00000
chimesFF: 	8 0 4 0.00000
chimesFF: 	4 8 0 0.00000
chimesFF: 	8 4 0 0.00000
chimesFF: 	0 4 9 3.28354
chimesFF: 	4 0 9 3.28354
chimesFF: 	0 9 4 3.28354
chimesFF: 	9 0 4 3.28354
chimesFF: 	4 9 0 3.28354
chimesFF: 	9 4 0 3.28354
chimesFF: 	0 4 10 5.47619
chimesFF: 	4 0 10 5.47619
chimesFF: 	0 10 4 5.47619
chimesFF: 	10 0 4 5.47619
chimesFF: 	4 10 0 5.47619
chimesFF: 	10 4 0 5.47619
chimesFF: 	0 4 11 2.65747
chimesFF: 	4 0 11 2.65747
chimesFF: 	0 11 4 2.65747
chimesFF: 	11 0 4 2.65747
chimesFF: 	4 11 0 2.65747
chimesFF: 	11 4 0 2.65747
chimesFF: 	0 4 12 -3.79752
chimesFF: 	4 0 12 -3.79752
chimesFF: 	0 12 4 -3.79752
chimesFF: 	12 0 4 -3.79752
chimesFF: 	4 12 0 -3.79752
chimesFF: 	12 4 0 -3.79752
chimesFF: 	0 4 13 0.00000
chimesFF: 	4 0 13 0.00000
chimesFF: 	0 13 4 0.00000
chimesFF: 	13 0 4 0.00000
chimesFF: 	4 13 0 0.00000
chimesFF: 	13 4 0 0.00000
chimesFF: 	0 4 14 -1.12234
chimesFF: 	4 0 14 -1.12234
chimesFF: 	0 14 4 -1.12234
chimesFF: 	14 0 4 -1.12234
chimesFF: 	4 14 0 -1.12234
chimesFF: 	14 4 0 -1.12234
chimesFF: 	0 5 5 3.55833
chimesFF: 	5 0 5 3.55833
chimesFF: 	5 5 0 3.55833
chimesFF: 	0 5 6 19.32568
chimesFF: 	5 0 6 19.32568
chimesFF: 	0 6 5 19.32568
chimesFF: 	6 0 5 19.32568
chimesFF: 	5 6 0 19.32568
chimesFF: 	6 5 0 19.32568
chimesFF: 	0 5 7 0.00000
chimesFF: 	5 0 7 0.00000
chimesFF: 	0 7 5 0.00000
chimesFF: 	7 0 5 0.00000
chimesFF: 	5 7 0 0.00000
chimesFF: 	7 5 0 0.00000
chimesFF: 	0 5 8 10.43992
chimesFF: 	5 0 8 10.43992
chimesFF: 	0 8 5 10.43992
chimesFF: 	8 0 5 10.43992
chimesFF: 	5 8 0 10.43992
chimesFF: 	8 5 0 10.43992
chimesFF: 	0 5 9 7.20395
chimesFF: 	5 0 9 7.20395
chimesFF: 	0 9 5 7.20395
chimesFF: 	9 0 5 7.20395
chimesFF: 	5 9 0 7.20395
chimesFF: 	9 5 0 7.20395
chimesFF: 	0 5 10 8.54850
chimesFF: 	5 0 10 8.54850
chimesFF: 	0 10 5 8.54850
chimesFF: 	10 0 5 8.54850
chimesFF: 	5 10 0 8.54850
chimesFF: 	10 5 0 8.54850
chimesFF: 	0 5 11 0.00000
chimesFF: 	5 0 11 0.00000
chimesFF: 	0 11 5 0.00000
chimesFF: 	11 0 5 0.00000
chimesFF: 	5 11 0 0.00000
chimesFF: 	11 5 0 0.00000
chimesFF: 	0 5 12 -0.79950
chimesFF: 	5 0 12 -0.79950
chimesFF: 	0 12 5 -0.79950
chimesFF: 	12 0 5 -0.79950
chimesFF: 	5 12 0 -0.79950
chimesFF: 	12 5 0 -0.79950
chimesFF: 	0 5 13 -1.80472
chimesFF: 	5 0 13 -1.80472
chimesFF: 	0 13 5 -1.80472
chimesFF: 	13 0 5 -1.80472
chimesFF: 	5 13 0 -1.80472
chimesFF: 	13 5 0 -1.80472
chimesFF: 	0 5 14 0.00000
chimesFF: 	5 0 14 0.00000
chimesFF: 	0 14 5 0.00000
chimesFF: 	14 0 5 0.00000
chimesFF: 	5 14 0 0.00000
chimesFF: 	14 5 0 0.00000
chimesFF: 	0 6 6 -8.10553
chimesFF: 	6 0 6 -8.10553
chimesFF: 	6 6 0 -8.10553
chimesFF: 	0 6 7 13.50958
chimesFF: 	6 0 7 13.50958
chimesFF: 	0 7 6 13.50958
chimesFF: 	7 0 6 13.50958
chimesFF: 	6 7 0 13.50958
chimesFF: 	7 6 0 13.50958
chimesFF: 	0 6 8 -6.25870
chimesFF: 	6 0 8 -6.25870
chimesFF: 	0 8 6 -6.25870
chimesFF: 	8 0 6 -6.25870
chimesFF: 	6 8 0 -6.25870
chimesFF: 	8 6 0 -6.25870
chimesFF: 	0 6 9 0.00000
chimesFF: 	6 0 9 0.00000
chimesFF: 	0 9 6 0.00000
chimesFF: 	9 0 6 0.00000
chimesFF: 	6 9 0 0.00000
chimesFF: 	9 6 0 0.00000
chimesFF: 	0 6 10 0.00000
chimesFF: 	6 0 10 0.00000
chimesFF: 	0 10 6 0.00000
chimesFF: 	10 0 6 0.00000
chimesFF: 	6 10 0 0.00000
chimesFF: 	10 6 0 0.00000
chimesFF: 	0 6 11 1.81948
chimesFF: 	6 0 11 1.81948
chimesFF: 	0 11 6 1.81948
chimesFF: 	11 0 6 1.81948
chimesFF: 	6 11 0 1.81948
chimesFF: 	11 6 0 1.81948
chimesFF: 	0 6 12 0.00000
chimesFF: 	6 0 12 0.00000
chimesFF: 	0 12 6 0.00000
chimesFF: 	12 0 6 0.00000
chimesFF: 	6 12 0 0.00000
chimesFF: 	12 6 0 0.00000
chimesFF: 	0 6 13 -0.14683
chimesFF: 	6 0 13 -0.14683
chimesFF: 	0 13 6 -0.14683
chimesFF: 	13 0 6 -0.14683
chimesFF: 	6 13 0 -0.14683
chimesFF: 	13 6 0 -0.14683
chimesFF: 	0 6 14 3.74341
chimesFF: 	6 0 14 3.74341
chimesFF: 	0 14 6 3.74341
chimesFF: 	14 0 6 3.74341
chimesFF: 	6 14 0 3.74341
chimesFF: 	14 6 0 3.74341
chimesFF: 	0 7 7 -1.15481
chimesFF: 	7 0 7 -1.15481
chimesFF: 	7 7 0 -1.15481
chimesFF: 	0 7 8 18.70825
chimesFF: 	7 0 8 18.70825
chimesFF: 	0 8 7 18.70825
chimesFF: 	8 0 7 18.70825
chimesFF: 	7 8 0 18.70825
chimesFF: 	8 7 0 18.70825
chimesFF: 	0 7 9 0.00000
chimesFF: 	7 0 9 0.00000
chimesFF: 	0 9 7 0.00000
chimesFF: 	9 0 7 0.00000
chimesFF: 	7 9 0 0.00000
chimesFF: 	9 7 0 0.00000
chimesFF: 	0 7 10 0.00000
chimesFF: 	7 0 10 0.00000
chimesFF: 	0 10 7 0.00000
chimesFF: 	10 0 7 0.00000
chimesFF: 	7 10 0 0.00000
chimesFF: 	10 7 0 0.00000
chimesFF: 	0 7 11 -2.07921
chimesFF: 	7 0 11 -2.07921
chimesFF: 	0 11 7 -2.07921
chimesFF: 	11 0 7 -2.07921
chimesFF: 	7 11 0 -2.07921
chimesFF: 	11 7 0 -2.07921
chimesFF: 	0 7 12 0.47481
chimesFF: 	7 0 12 0.47481
chimesFF: 	0 12 7 0.47481
chimesFF: 	12 0 7 0.47481
chimesFF: 	7 12 0 0.47481
chimesFF: 	12 7 0 0.47481
chimesFF: 	0 7 13 0.21062
chimesFF: 	7 0 13 0.21062
chimesFF: 	0 13 7 0.21062
chimesFF: 	13 0 7 0.21062
chimesFF: 	7 13 0 0.21062
chimesFF: 	13 7 0 0.21062
chimesFF: 	0 7 14 -0.86348
chimesFF: 	7 0 14 -0.86348
chimesFF: 	0 14 7 -0.86348
chimesFF: 	14 0 7 -0.86348
chimesFF: 	7 14 0 -0.86348
chimesFF: 	14 7 0 -0.86348
chimesFF: 	0 8 8 -8.58322
chimesFF: 	8 0 8 -8.58322
chimesFF: 	8 8 0 -8.58322
chimesFF: 	0 8 9 7.85167
chimesFF: 	8 0 9 7.85167
chimesFF: 	0 9 8 7.85167
chimesFF: 	9 0 8 7.85167
chimesFF: 	8 9 0 7.85167
chimesFF: 	9 8 0 7.85167
chimesFF: 	0 8 10 0.00000
chimesFF: 	8 0 10 0.00000
chimesFF: 	0 10 8 0.00000
chimesFF: 	10 0 8 0.00000
chimesFF: 	8 10 0 0.00000
chimesFF: 	10 8 0 0.00000
chimesFF: 	0 8 11 0.64500
chimesFF: 	8 0 11 0.64500
chimesFF: 	0 11 8 0.64500
chimesFF: 	11 0 8 0.64500
chimesFF: 	8 11 0 0.64500
chimesFF: 	11 8 0 0.64500
chimesFF: 	0 8 12 -4.44838
chimesFF: 	8 0 12 -4.44838
chimesFF: 	0 12 8 -4.44838
chimesFF: 	12 0 8 -4.44838
chimesFF: 	8 12 0 -4.44838
chimesFF: 	12 8 0 -4.44838
chimesFF: 	0 8 13 1.96105
chimesFF: 	8 0 13 1.96105
chimesFF: 	0 13 8 1.96105
chimesFF: 	13 0 8 1.96105
chimesFF: 	8 13 0 1.96105
chimesFF: 	13 8 0 1.96105
chimesFF: 	0 8 14 1.50696
chimesFF: 	8 0 14 1.50696
chimesFF: 	0 14 8 1.50696
chimesFF: 	14 0 8 1.50696
chimesFF: 	8 14 0 1.50696
chimesFF: 	14 8 0 1.50696
chimesFF: 	0 9 9 3.28153
chimesFF: 	9 0 9 3.28153
chimesFF: 	9 9 0 3.28153
chimesFF: 	0 9 10 3.60065
chimesFF: 	9 0 10 3.60065
chimesFF: 	0 10 9 3.60065
chimesFF: 	10 0 9 3.60065
chimesFF: 	9 10 0 3.60065
chimesFF: 	10 9 0 3.60065
chimesFF: 	0 9 11 0.00000
chimesFF: 	9 0 11 0.00000
chimesFF: 	0 11 9 0.00000
chimesFF: 	11 0 9 0.00000
chimesFF: 	9 11 0 0.00000
chimesFF: 	11 9 0 0.00000
chimesFF: 	0 9 12 -2.45352
chimesFF: 	9 0 12 -2.45352
chimesFF: 	0 12 9 -2.45352
chimesFF: 	12 0 9 -2.45352
chimesFF: 	9 12 0 -2.45352
chimesFF: 	12 9 0 -2.45352
chimesFF: 	0 9 13 -0.29590
chimesFF: 	9 0 13 -0.29590
chimesFF: 	0 13 9 -0.29590
chimesFF: 	13 0 9 -0.29590
chimesFF: 	9 13 0 -0.29590
chimesFF: 	13 9 0 -0.29590
chimesFF: 	0 9 14 -1.15922
chimesFF: 	9 0 14 -1.15922
chimesFF: 	0 14 9 -1.15922
chimesFF: 	14 0 9 -1.15922
chimesFF: 	9 14 0 -1.15922
chimesFF: 	14 9 0 -1.15922
chimesFF: 	0 10 10 22.40144
chimesFF: 	10 0 10 22.40144
chimesFF: 	10 10 0 22.40144
chimesFF: 	0 10 11 -1.26697
chimesFF: 	10 0 11 -1.26697
chimesFF: 	0 11 10 -1.26697
chimesFF: 	11 0 10 -1.26697
chimesFF: 	10 11 0 -1.26697
chimesFF: 	11 10 0 -1.26697
chimesFF: 	0 10 12 5.14604
chimesFF: 	10 0 12 5.14604
chimesFF: 	0 12 10 5.14604
chimesFF: 	12 0 10 5.14604
chimesFF: 	10 12 0 5.14604
chimesFF: 	12 10 0 5.14604
chimesFF: 	0 10 13 -0.41348
chimesFF: 	10 0 13 -0.41348
chimesFF: 	0 13 10 -0.41348
chimesFF: 	13 0 10 -0.41348
chimesFF: 	10 13 0 -0.41348
chimesFF: 	13 10 0 -0.41348
chimesFF: 	0 10 14 2.39453
chimesFF: 	10 0 14 2.39453
chimesFF: 	0 14 10 2.39453
chimesFF: 	14 0 10 2.39453
chimesFF: 	10 14 0 2.39453
chimesFF: 	14 10 0 2.39453
chimesFF: 	0 11 11 2.17300
chimesFF: 	11 0 11 2.17300
chimesFF: 	11 11 0 2.17300
chimesFF: 	0 11 12 -4.54550
chimesFF: 	11 0 12 -4.54550
chimesFF: 	0 12 11 -4.54550
chimesFF: 	12 0 11 -4.54550
chimesFF: 	11 12 0 -4.54550
chimesFF: 	12 11 0 -4.54550
chimesFF: 	0 11 13 1.27456
chimesFF: 	11 0 13 1.27456
chimesFF: 	0 13 11 1.27456
chimesFF: 	13 0 11 1.27456
chimesFF: 	11 13 0 1.27456
chimesFF: 	13 11 0 1.27456
chimesFF: 	0 11 14 0.53674
chimesFF: 	11 0 14 0.53674
chimesFF: 	0 14 11 0.53674
chimesFF: 	14 0 11 0.53674
chimesFF: 	11 14 0 0.53674
chimesFF: 	14 11 0 0.53674
chimesFF: 	0 12 12 -1.93557
chimesFF: 	12 0 12 -1.93557
chimesFF: 	12 12 0 -1.93557
chimesFF: 	0 12 13 0.00000
chimesFF: 	12 0 13 0.00000
chimesFF: 	0 13 12 0.00000
chimesFF: 	13 0 12 0.00000
chimesFF: 	12 13 0 0.00000
chimesFF: 	13 12 0 0.00000
chimesFF: 	0 12 14 -2.50342
chimesFF: 	12 0 14 -2.50342
chimesFF: 	0 14 12 -2.50342
chimesFF: 	14 0 12 -2.50342
chimesFF: 	12 14 0 -2.50342
chimesFF: 	14 12 0 -2.50342
chimesFF: 	0 13 13 0.17602
chimesFF: 	13 0 13 0.17602
chimesFF: 	13 13 0 0.17602
chimesFF: 	0 13 14 0.16582
chimesFF: 	13 0 14 0.16582
chimesFF: 	0 14 13 0.16582
chimesFF: 	14 0 13 0.16582
chimesFF: 	13 14 0 0.16582
chimesFF: 	14 13 0 0.16582
chimesFF: 	0 14 14 -4.70904
chimesFF: 	14 0 14 -4.70904
chimesFF: 	14 14 0 -4.70904
chimesFF: 	1 1 1 921.15178
chimesFF: 	1 1 2 245.98456
chimesFF: 	1 2 1 245.98456
chimesFF: 	2 1 1 245.98456
chimesFF: 	1 1 3 332.65333
chimesFF: 	1 3 1 332.65333
chimesFF: 	3 1 1 332.65333
chimesFF: 	1 1 4 82.36973
chimesFF: 	1 4 1 82.36973
chimesFF: 	4 1 1 82.36973
chimesFF: 	1 1 5 -32.50750
chimesFF: 	1 5 1 -32.50750
chimesFF: 	5 1 1 -32.50750
chimesFF: 	1 1 6 -42.99921
chimesFF: 	1 6 1 -42.99921
chimesFF: 	6 1 1 -42.99921
chimesFF: 	1 1 7 0.00000
chimesFF: 	1 7 1 0.00000
chimesFF: 	7 1 1 0.00000
chimesFF: 	1 1 8 -36.48543
chimesFF: 	1 8 1 -36.48543
chimesFF: 	8 1 1 -36.48543
chimesFF: 	1 1 9 221.30137
chimesFF: 	1 9 1 221.30137
chimesFF: 	9 1 1 221.30137
chimesFF: 	1 1 10 0.00000
chimesFF: 	1 10 1 0.00000
chimesFF: 	10 1 1 0.00000
chimesFF: 	1 1 11 83.31049
chimesFF: 	1 11 1 83.31049
chimesFF: 	11 1 1 83.31049
chimesFF: 	1 1 12 31.51106
chimesFF: 	1 12 1 31.51106
chimesFF: 	12 1 1 31.51106
chimesFF: 	1 1 13 13.58761
chimesFF: 	1 13 1 13.58761
chimesFF: 	13 1 1 13.58761
chimesFF: 	1 1 14 11.48859
chimesFF: 	1 14 1 11.48859
chimesFF: 	14 1 1 11.48859
chimesFF: 	1 2 2 203.20908
chimesFF: 	2 1 2 203.20908
chimesFF: 	2 2 1 203.20908
chimesFF: 	1 2 3 0.00000
chimesFF: 	2 1 3 0.00000
chimesFF: 	1 3 2 0.00000
chimesFF: 	3 1 2 0.00000
chimesFF: 	2 3 1 0.00000
chimesFF: 	3 2 1 0.00000
chimesFF: 	1 2 4 90.55919
chimesFF: 	2 1 4 90.55919
chimesFF: 	1 4 2 90.55919
chimesFF: 	4 1 2 90.55919
chimesFF: 	2 4 1 90.55919
chimesFF: 	4 2 1 90.55919
chimesFF: 	1 2 5 -85.19847
chimesFF: 	2 1 5 -85.19847
chimesFF: 	1 5 2 -85.19847
chimesFF: 	5 1 2 -85.19847
chimesFF: 	2 5 1 -85.19847
chimesFF: 	5 2 1 -85.19847
chimesFF: 	1 2 6 0.00000
chimesFF: 	2 1 6 0.00000
chimesFF: 	1 6 2 0.00000
chimesFF: 	6 1 2 0.00000
chimesFF: 	2 6 1 0.00000
chimesFF: 	6 2 1 0.00000
chimesFF: 	1 2 7 42.92665
chimesFF: 	2 1 7 42.92665
chimesFF: 	1 7 2 42.92665
chimesFF: 	7 1 2 42.92665
chimesFF: 	2 7 1 42.92665
chimesFF: 	7 2 1 42.92665
chimesFF: 	1 2 8 -12.22487
chimesFF: 	2 1 8 -12.22487
chimesFF: 	1 8 2 -12.22487
chimesFF: 	8 1 2 -12.22487
chimesFF: 	2 8 1 -12.22487
chimesFF: 	8 2 1 -12.22487
chimesFF: 	1 2 9 -13.01290
chimesFF: 	2 1 9 -13.01290
chimesFF: 	1 9 2 -13.01290
chimesFF: 	9 1 2 -13.01290
chimesFF: 	2 9 1 -13.01290
chimesFF: 	9 2 1 -13.01290
chimesFF: 	1 2 10 36.15209
chimesFF: 	2 1 10 36.15209
chimesFF: 	1 10 2 36.15209
chimesFF: 	10 1 2 36.15209
chimesFF: 	2 10 1 36.15209
chimesFF: 	10 2 1 36.15209
chimesFF: 	1 2 11 -3.89833
chimesFF: 	2 1 11 -3.89833
chimesFF: 	1 11 2 -3.89833
chimesFF: 	11 1 2 -3.89833
chimesFF: 	2 11 1 -3.89833
chimesFF: 	11 2 1 -3.89833
chimesFF: 	1 2 12 7.34971
chimesFF: 	2 1 12 7.34971
chimesFF: 	1 12 2 7.34971
chimesFF: 	12 1 2 7.34971
chimesFF: 	2 12 1 7.34971
chimesFF: 	12 2 1 7.34971
chimesFF: 	1 2 13 -5.28663
chimesFF: 	2 1 13 -5.28663
chimesFF: 	1 13 2 -5.28663
chimesFF: 	13 1 2 -5.28663
chimesFF: 	2 13 1 -5.28663
chimesFF: 	13 2 1 -5.28663
chimesFF: 	1 2 14 -3.78714
chimesFF: 	2 1 14 -3.78714
chimesFF: 	1 14 2 -3.78714
chimesFF: 	14 1 2 -3.78714
chimesFF: 	2 14 1 -3.78714
chimesFF: 	14 2 1 -3.78714
chimesFF: 	1 3 3 93.58991
chimesFF: 	3 1 3 93.58991
chimesFF: 	3 3 1 93.58991
chimesFF: 	1 3 4 22.62075
chimesFF: 	3 1 4 22.62075
chimesFF: 	1 4 3 22.62075
chimesFF: 	4 1 3 22.62075
chimesFF: 	3 4 1 22.62075
chimesFF: 	4 3 1 22.62075
chimesFF: 	1 3 5 -20.24405
chimesFF: 	3 1 5 -20.24405
chimesFF: 	1 5 3 -20.24405
chimesFF: 	5 1 3 -20.24405
chimesFF: 	3 5 1 -20.24405
chimesFF: 	5 3 1 -20.24405
chimesFF: 	1 3 6 0.00000
chimesFF: 	3 1 6 0.00000
chimesFF: 	1 6 3 0.00000
chimesFF: 	6 1 3 0.00000
chimesFF: 	3 6 1 0.00000
chimesFF: 	6 3 1 0.00000
chimesFF: 	1 3 7 -3.43484
chimesFF: 	3 1 7 -3.43484
chimesFF: 	1 7 3 -3.43484
chimesFF: 	7 1 3 -3.43484
chimesFF: 	3 7 1 -3.43484
chimesFF: 	7 3 1 -3.43484
chimesFF: 	1 3 8 -10.80375
chimesFF: 	3 1 8 -10.80375
chimesFF: 	1 8 3 -10.80375
chimesFF: 	8 1 3 -10.80375
chimesFF: 	3 8 1 -10.80375
chimesFF: 	8 3 1 -10.80375
chimesFF: 	1 3 9 130.36791
chimesFF: 	3 1 9 130.36791
chimesFF: 	1 9 3 130.36791
chimesFF: 	9 1 3 130.36791
chimesFF: 	3 9 1 130.36791
chimesFF: 	9 3 1 130.36791
chimesFF: 	1 3 10 3.46102
chimesFF: 	3 1 10 3.46102
chimesFF: 	1 10 3 3.46102
chimesFF: 	10 1 3 3.46102
chimesFF: 	3 10 1 3.46102
chimesFF: 	10 3 1 3.46102
chimesFF: 	1 3 11 35.32316
chimesFF: 	3 1 11 35.32316
chimesFF: 	1 11 3 35.32316
chimesFF: 	11 1 3 35.32316
chimesFF: 	3 11 1 35.32316
chimesFF: 	11 3 1 35.32316
chimesFF: 	1 3 12 18.25093
chimesFF: 	3 1 12 18.25093
chimesFF: 	1 12 3 18.25093
chimesFF: 	12 1 3 18.25093
chimesFF: 	3 12 1 18.25093
chimesFF: 	12 3 1 18.25093
chimesFF: 	1 3 13 0.00000
chimesFF: 	3 1 13 0.00000
chimesFF: 	1 13 3 0.00000
chimesFF: 	13 1 3 0.00000
chimesFF: 	3 13 1 0.00000
chimesFF: 	13 3 1 0.00000
chimesFF: 	1 3 14 5.01682
chimesFF: 	3 1 14 5.01682
chimesFF: 	1 14 3 5.01682
chimesFF: 	14 1 3 5.01682
chimesFF: 	3 14 1 5.01682
chimesFF: 	14 3 1 5.01682
chimesFF: 	1 4 4 0.00000
chimesFF: 	4 1 4 0.00000
chimesFF: 	4 4 1 0.00000
chimesFF: 	1 4 5 -16.27414
chimesFF: 	4 1 5 -16.27414
chimesFF: 	1 5 4 -16.27414
chimesFF: 	5 1 4 -16.27414
chimesFF: 	4 5 1 -16.27414
chimesFF: 	5 4 1 -16.27414
chimesFF: 	1 4 6 5.83411
chimesFF: 	4 1 6 5.83411
chimesFF: 	1 6 4 5.83411
chimesFF: 	6 1 4 5.83411
chimesFF: 	4 6 1 5.83411
chimesFF: 	6 4 1 5.83411
chimesFF: 	1 4 7 91.50394
chimesFF: 	4 1 7 91.50394
chimesFF: 	1 7 4 91.50394
chimesFF: 	7 1 4 91.50394
chimesFF: 	4 7 1 91.50394
chimesFF: 	7 4 1 91.50394
chimesFF: 	1 4 8 26.71623
chimesFF: 	4 1 8 26.71623
chimesFF: 	1 8 4 26.71623
chimesFF: 	8 1 4 26.71623
chimesFF: 	4 8 1 26.71623
chimesFF: 	8 4 1 26.71623
chimesFF: 	1 4 9 -35.21930
chimesFF: 	4 1 9 -35.21930
chimesFF: 	1 9 4 -35.21930
chimesFF: 	9 1 4 -35.21930
chimesFF: 	4 9 1 -35.21930
chimesFF: 	9 4 1 -35.21930
chimesFF: 	1 4 10 22.34329
chimesFF: 	4 1 10 22.34329
chimesFF: 	1 10 4 22.34329
chimesFF: 	10 1 4 22.34329
chimesFF: 	4 10 1 22.34329
chimesFF: 	10 4 1 22.34329
chimesFF: 	1 4 11 -12.57427
chimesFF: 	4 1 11 -12.57427
chimesFF: 	1 11 4 -12.57427
chimesFF: 	11 1 4 -12.57427
chimesFF: 	4 11 1 -12.57427
chimesFF: 	11 4 1 -12.57427
chimesFF: 	1 4 12 14.08579
chimesFF: 	4 1 12 14.08579
chimesFF: 	1 12 4 14.08579
chimesFF: 	12 1 4 14.08579
chimesFF: 	4 12 1 14.08579
chimesFF: 	12 4 1 14.08579
chimesFF: 	1 4 13 -1.21087
chimesFF: 	4 1 13 -1.21087
chimesFF: 	1 13 4 -1.21087
chimesFF: 	13 1 4 -1.21087
chimesFF: 	4 13 1 -1.21087
chimesFF: 	13 4 1 -1.21087
chimesFF: 	1 4 14 3.06407
chimesFF: 	4 1 14 3.06407
chimesFF: 	1 14 4 3.06407
chimesFF: 	14 1 4 3.06407
chimesFF: 	4 14 1 3.06407
chimesFF: 	14 4 1 3.06407
chimesFF: 	1 5 5 0.00000
chimesFF: 	5 1 5 0.00000
chimesFF: 	5 5 1 0.00000
chimesFF: 	1 5 6 0.00000
chimesFF: 	5 1 6 0.00000
chimesFF: 	1 6 5 0.00000
chimesFF: 	6 1 5 0.00000
chimesFF: 	5 6 1 0.00000
chimesFF: 	6 5 1 0.00000
chimesFF: 	1 5 7 16.88232
chimesFF: 	5 1 7 16.88232
chimesFF: 	1 7 5 16.88232
chimesFF: 	7 1 5 16.88232
chimesFF: 	5 7 1 16.88232
chimesFF: 	7 5 1 16.88232
chimesFF: 	1 5 8 0.00000
chimesFF: 	5 1 8 0.00000
chimesFF: 	1 8 5 0.00000
chimesFF: 	8 1 5 0.00000
chimesFF: 	5 8 1 0.00000
chimesFF: 	8 5 1 0.00000
chimesFF: 	1 5 9 73.04796
chimesFF: 	5 1 9 73.04796
chimesFF: 	1 9 5 73.04796
chimesFF: 	9 1 5 73.04796
chimesFF: 	5 9 1 73.04796
chimesFF: 	9 5 1 73.04796
chimesFF: 	1 5 10 -15.69789
chimesFF: 	5 1 10 -15.69789
chimesFF: 	1 10 5 -15.69789
chimesFF: 	10 1 5 -15.69789
chimesFF: 	5 10 1 -15.69789
chimesFF: 	10 5 1 -15.69789
chimesFF: 	1 5 11 19.16623
chimesFF: 	5 1 11 19.16623
chimesFF: 	1 11 5 19.16623
chimesFF: 	11 1 5 19.16623
chimesFF: 	5 11 1 19.16623
chimesFF: 	11 5 1 19.16623
chimesFF: 	1 5 12 4.08488
chimesFF: 	5 1 12 4.08488
chimesFF: 	1 12 5 4.08488
chimesFF: 	12 1 5 4.08488
chimesFF: 	5 12 1 4.08488
chimesFF: 	12 5 1 4.08488
chimesFF: 	1 5 13 10.22928
chimesFF: 	5 1 13 10.22928
chimesFF: 	1 13 5 10.22928
chimesFF: 	13 1 5 10.22928
chimesFF: 	5 13 1 10.22928
chimesFF: 	13 5 1 10.22928
chimesFF: 	1 5 14 0.33249
chimesFF: 	5 1 14 0.33249
chimesFF: 	1 14 5 0.33249
chimesFF: 	14 1 5 0.33249
chimesFF: 	5 14 1 0.33249
chimesFF: 	14 5 1 0.33249
chimesFF: 	1 6 6 11.74117
chimesFF: 	6 1 6 11.74117
chimesFF: 	6 6 1 11.74117
chimesFF: 	1 6 7 54.50298
chimesFF: 	6 1 7 54.50298
chimesFF: 	1 7 6 54.50298
chimesFF: 	7 1 6 54.50298
chimesFF: 	6 7 1 54.50298
chimesFF: 	7 6 1 54.50298
chimesFF: 	1 6 8 13.05298
chimesFF: 	6 1 8 13.05298
chimesFF: 	1 8 6 13.05298
chimesFF: 	8 1 6 13.05298
chimesFF: 	6 8 1 13.05298
chimesFF: 	8 6 1 13.05298
chimesFF: 	1 6 9 -26.13845
chimesFF: 	6 1 9 -26.13845
chimesFF: 	1 9 6 -26.13845
chimesFF: 	9 1 6 -26.13845
chimesFF: 	6 9 1 -26.13845
chimesFF: 	9 6 1 -26.13845
chimesFF: 	1 6 10 4.99554
chimesFF: 	6 1 10 4.99554
chimesFF: 	1 10 6 4.99554
chimesFF: 	10 1 6 4.99554
chimesFF: 	6 10 1 4.99554
chimesFF: 	10 6 1 4.99554
chimesFF: 	1 6 11 -6.48298
chimesFF: 	6 1 11 -6.48298
chimesFF: 	1 11 6 -6.48298
chimesFF: 	11 1 6 -6.48298
chimesFF: 	6 11 1 -6.48298
chimesFF: 	11 6 1 -6.48298
chimesFF: 	1 6 12 0.00000
chimesFF: 	6 1 12 0.00000
chimesFF: 	1 12 6 0.00000
chimesFF: 	12 1 6 0.00000
chimesFF: 	6 12 1 0.00000
chimesFF: 	12 6 1 0.00000
chimesFF: 	1 6 13 0.00000
chimesFF: 	6 1 13 0.00000
chimesFF: 	1 13 6 0.00000
chimesFF: 	13 1 6 0.00000
chimesFF: 	6 13 1 0.00000
chimesFF: 	13 6 1 0.00000
chimesFF: 	1 6 14 0.00000
chimesFF: 	6 1 14 0.00000
chimesFF: 	1 14 6 0.00000
chimesFF: 	14 1 6 0.00000
chimesFF: 	6 14 1 0.00000
chimesFF: 	14 6 1 0.00000
chimesFF: 	1 7 7 -8.37046
chimesFF: 	7 1 7 -8.37046
chimesFF: 	7 7 1 -8.37046
chimesFF: 	1 7 8 10.65249
chimesFF: 	7 1 8 10.65249
chimesFF: 	1 8 7 10.65249
chimesFF: 	8 1 7 10.65249
chimesFF: 	7 8 1 10.65249
chimesFF: 	8 7 1 10.65249
chimesFF: 	1 7 9 43.32204
chimesFF: 	7 1 9 43.32204
chimesFF: 	1 9 7 43.32204
chimesFF: 	9 1 7 43.32204
chimesFF: 	7 9 1 43.32204
chimesFF: 	9 7 1 43.32204
chimesFF: 	1 7 10 0.00000
chimesFF: 	7 1 10 0.00000
chimesFF: 	1 10 7 0.00000
chimesFF: 	10 1 7 0.00000
chimesFF: 	7 10 1 0.00000
chimesFF: 	10 7 1 0.00000
chimesFF: 	1 7 11 23.18869
chimesFF: 	7 1 11 23.18869
chimesFF: 	1 11 7 23.18869
chimesFF: 	11 1 7 23.18869
chimesFF: 	7 11 1 23.18869
chimesFF: 	11 7 1 23.18869
chimesFF: 	1 7 12 3.35986
chimesFF: 	7 1 12 3.35986
chimesFF: 	1 12 7 3.35986
chimesFF: 	12 1 7 3.35986
chimesFF: 	7 12 1 3.35986
chimesFF: 	12 7 1 3.35986
chimesFF: 	1 7 13 11.91415
chimesFF: 	7 1 13 11.91415
chimesFF: 	1 13 7 11.91415
chimesFF: 	13 1 7 11.91415
chimesFF: 	7 13 1 11.91415
chimesFF: 	13 7 1 11.91415
chimesFF: 	1 7 14 0.00000
chimesFF: 	7 1 14 0.00000
chimesFF: 	1 14 7 0.00000
chimesFF: 	14 1 7 0.00000
chimesFF: 	7 14 1 0.00000
chimesFF: 	14 7 1 0.00000
chimesFF: 	1 8 8 -17.80163
chimesFF: 	8 1 8 -17.80163
chimesFF: 	8 8 1 -17.80163
chimesFF: 	1 8 9 -19.00362
chimesFF: 	8 1 9 -19.00362
chimesFF: 	1 9 8 -19.00362
chimesFF: 	9 1 8 -19.00362
chimesFF: 	8 9 1 -19.00362
chimesFF: 	9 8 1 -19.00362
chimesFF: 	1 8 10 -1.43106
chimesFF: 	8 1 10 -1.43106
chimesFF: 	1 10 8 -1.43106
chimesFF: 	10 1 8 -1.43106
chimesFF: 	8 10 1 -1.43106
chimesFF: 	10 8 1 -1.43106
chimesFF: 	1 8 11 10.48135
chimesFF: 	8 1 11 10.48135
chimesFF: 	1 11 8 10.48135
chimesFF: 	11 1 8 10.48135
chimesFF: 	8 11 1 10.48135
chimesFF: 	11 8 1 10.48135
chimesFF: 	1 8 12 6.28637
chimesFF: 	8 1 12 6.28637
chimesFF: 	1 12 8 6.28637
chimesFF: 	12 1 8 6.28637
chimesFF: 	8 12 1 6.28637
chimesFF: 	12 8 1 6.28637
chimesFF: 	1 8 13 2.71832
chimesFF: 	8 1 13 2.71832
chimesFF: 	1 13 8 2.71832
chimesFF: 	13 1 8 2.71832
chimesFF: 	8 13 1 2.71832
chimesFF: 	13 8 1 2.71832
chimesFF: 	1 8 14 5.74816
chimesFF: 	8 1 14 5.74816
chimesFF: 	1 14 8 5.74816
chimesFF: 	14 1 8 5.74816
chimesFF: 	8 14 1 5.74816
chimesFF: 	14 8 1 5.74816
chimesFF: 	1 9 9 20.18701
chimesFF: 	9 1 9 20.18701
chimesFF: 	9 9 1 20.18701
chimesFF: 	1 9 10 -17.46521
chimesFF: 	9 1 10 -17.46521
chimesFF: 	1 10 9 -17.46521
chimesFF: 	10 1 9 -17.46521
chimesFF: 	9 10 1 -17.46521
chimesFF: 	10 9 1 -17.46521
chimesFF: 	1 9 11 12.59271
chimesFF: 	9 1 11 12.59271
chimesFF: 	1 11 9 12.59271
chimesFF: 	11 1 9 12.59271
chimesFF: 	9 11 1 12.59271
chimesFF: 	11 9 1 12.59271
chimesFF: 	1 9 12 11.15004
chimesFF: 	9 1 12 11.15004
chimesFF: 	1 12 9 11.15004
chimesFF: 	12 1 9 11.15004
chimesFF: 	9 12 1 11.15004
chimesFF: 	12 9 1 11.15004
chimesFF: 	1 9 13 11.12054
chimesFF: 	9 1 13 11.12054
chimesFF: 	1 13 9 11.12054
chimesFF: 	13 1 9 11.12054
chimesFF: 	9 13 1 11.12054
chimesFF: 	13 9 1 11.12054
chimesFF: 	1 9 14 0.00000
chimesFF: 	9 1 14 0.00000
chimesFF: 	1 14 9 0.00000
chimesFF: 	14 1 9 0.00000
chimesFF: 	9 14 1 0.00000
chimesFF: 	14 9 1 0.00000
chimesFF: 	1 10 10 -5.55033
chimesFF: 	10 1 10 -5.55033
chimesFF: 	10 10 1 -5.55033
chimesFF: 	1 10 11 4.32953
chimesFF: 	10 1 11 4.32953
chimesFF: 	1 11 10 4.32953
chimesFF: 	11 1 10 4.32953
chimesFF: 	10 11 1 4.32953
chimesFF: 	11 10 1 4.32953
chimesFF: 	1 10 12 6.50068
chimesFF: 	10 1 12 6.50068
chimesFF: 	1 12 10 6.50068
chimesFF: 	12 1 10 6.50068
chimesFF: 	10 12 1 6.50068
chimesFF: 	12 10 1 6.50068
chimesFF: 	1 10 13 3.47091
chimesFF: 	10 1 13 3.47091
chimesFF: 	1 13 10 3.47091
chimesFF: 	13 1 10 3.47091
chimesFF: 	10 13 1 3.47091
chimesFF: 	13 10 1 3.47091
chimesFF: 	1 10 14 6.80245
chimesFF: 	10 1 14 6.80245
chimesFF: 	1 14 10 6.80245
chimesFF: 	14 1 10 6.80245
chimesFF: 	10 14 1 6.80245
chimesFF: 	14 10 1 6.80245
chimesFF: 	1 11 11 8.77891
chimesFF: 	11 1 11 8.77891
chimesFF: 	11 11 1 8.77891
chimesFF: 	1 11 12 15.30717
chimesFF: 	11 1 12 15.30717
chimesFF: 	1 12 11 15.30717
chimesFF: 	12 1 11 15.30717
chimesFF: 	11 12 1 15.30717
chimesFF: 	12 11 1 15.30717
chimesFF: 	1 11 13 5.88458
chimesFF: 	11 1 13 5.88458
chimesFF: 	1 13 11 5.88458
chimesFF: 	13 1 11 5.88458
chimesFF: 	11 13 1 5.88458
chimesFF: 	13 11 1 5.88458
chimesFF: 	1 11 14 -2.02432
chimesFF: 	11 1 14 -2.02432
chimesFF: 	1 14 11 -2.02432
chimesFF: 	14 1 11 -2.02432
chimesFF: 	11 14 1 -2.02432
chimesFF: 	14 11 1 -2.02432
chimesFF: 	1 12 12 10.58721
chimesFF: 	12 1 12 10.58721
chimesFF: 	12 12 1 10.58721
chimesFF: 	1 12 13 2.56998
chimesFF: 	12 1 13 2.56998
chimesFF: 	1 13 12 2.56998
chimesFF: 	13 1 12 2.56998
chimesFF: 	12 13 1 2.56998
chimesFF: 	13 12 1 2.56998
chimesFF: 	1 12 14 11.52541
chimesFF: 	12 1 14 11.52541
chimesFF: 	1 14 12 11.52541
chimesFF: 	14 1 12 11.52541
chimesFF: 	12 14 1 11.52541
chimesFF: 	14 12 1 11.52541
chimesFF: 	1 13 13 2.35250
chimesFF: 	13 1 13 2.35250
chimesFF: 	13 13 1 2.35250
chimesFF: 	1 13 14 -0.70242
chimesFF: 	13 1 14 -0.70242
chimesFF: 	1 14 13 -0.70242
chimesFF: 	14 1 13 -0.70242
chimesFF: 	13 14 1 -0.70242
chimesFF: 	14 13 1 -0.70242
chimesFF: 	1 14 14 12.37097
chimesFF: 	14 1 14 12.37097
chimesFF: 	14 14 1 12.37097
chimesFF: 	2 2 2 -5.25045
chimesFF: 	2 2 3 47.48687
chimesFF: 	2 3 2 47.48687
chimesFF: 	3 2 2 47.48687
chimesFF: 	2 2 4 0.00000
chimesFF: 	2 4 2 0.00000
chimesFF: 	4 2 2 0.00000
chimesFF: 	2 2 5 0.00000
chimesFF: 	2 5 2 0.00000
chimesFF: 	5 2 2 0.00000
chimesFF: 	2 2 6 -3.48297
chimesFF: 	2 6 2 -3.48297
chimesFF: 	6 2 2 -3.48297
chimesFF: 	2 2 7 6.21435
chimesFF: 	2 7 2 6.21435
chimesFF: 	7 2 2 6.21435
chimesFF: 	2 2 8 17.55415
chimesFF: 	2 8 2 17.55415
chimesFF: 	8 2 2 17.55415
chimesFF: 	2 2 9 -7.75133
chimesFF: 	2 9 2 -7.75133
chimesFF: 	9 2 2 -7.75133
chimesFF: 	2 2 10 -32.05445
chimesFF: 	2 10 2 -32.05445
chimesFF: 	10 2 2 -32.05445
chimesFF: 	2 2 11 0.00000
chimesFF: 	2 11 2 0.00000
chimesFF: 	11 2 2 0.00000
chimesFF: 	2 2 12 -21.63186
chimesFF: 	2 12 2 -21.63186
chimesFF: 	12 2 2 -21.63186
chimesFF: 	2 2 13 15.80057
chimesFF: 	2 13 2 15.80057
chimesFF: 	13 2 2 15.80057
chimesFF: 	2 2 14 -3.36044
chimesFF: 	2 14 2 -3.36044
chimesFF: 	14 2 2 -3.36044
chimesFF: 	2 3 3 -84.57281
chimesFF: 	3 2 3 -84.57281
chimesFF: 	3 3 2 -84.57281
chimesFF: 	2 3 4 0.00000
chimesFF: 	3 2 4 0.00000
chimesFF: 	2 4 3 0.00000
chimesFF: 	4 2 3 0.00000
chimesFF: 	3 4 2 0.00000
chimesFF: 	4 3 2 0.00000
chimesFF: 	2 3 5 -74.42386
chimesFF: 	3 2 5 -74.42386
chimesFF: 	2 5 3 -74.42386
chimesFF: 	5 2 3 -74.42386
chimesFF: 	3 5 2 -74.42386
chimesFF: 	5 3 2 -74.42386
chimesFF: 	2 3 6 -27.06738
chimesFF: 	3 2 6 -27.06738
chimesFF: 	2 6 3 -27.06738
chimesFF: 	6 2 3 -27.06738
chimesFF: 	3 6 2 -27.06738
chimesFF: 	6 3 2 -27.06738
chimesFF: 	2 3 7 13.09929
chimesFF: 	3 2 7 13.09929
chimesFF: 	2 7 3 13.09929
chimesFF: 	7 2 3 13.09929
chimesFF: 	3 7 2 13.09929
chimesFF: 	7 3 2 13.09929
chimesFF: 	2 3 8 -22.03307
chimesFF: 	3 2 8 -22.03307
chimesFF: 	2 8 3 -22.03307
chimesFF: 	8 2 3 -22.03307
chimesFF: 	3 8 2 -22.03307
chimesFF: 	8 3 2 -22.03307
chimesFF: 	2 3 9 0.00000
chimesFF: 	3 2 9 0.00000
chimesFF: 	2 9 3 0.00000
chimesFF: 	9 2 3 0.00000
chimesFF: 	3 9 2 0.00000
chimesFF: 	9 3 2 0.00000
chimesFF: 	2 3 10 7.46780
chimesFF: 	3 2 10 7.46780
chimesFF: 	2 10 3 7.46780
chimesFF: 	10 2 3 7.46780
chimesFF: 	3 10 2 7.46780
chimesFF: 	10 3 2 7.46780
chimesFF: 	2 3 11 1.14412
chimesFF: 	3 2 11 1.14412
chimesFF: 	2 11 3 1.14412
chimesFF: 	11 2 3 1.14412
chimesFF: 	3 11 2 1.14412
chimesFF: 	11 3 2 1.14412
chimesFF: 	2 3 12 0.00000
chimesFF: 	3 2 12 0.00000
chimesFF: 	2 12 3 0.00000
chimesFF: 	12 2 3 0.00000
chimesFF: 	3 12 2 0.00000
chimesFF: 	12 3 2 0.00000
chimesFF: 	2 3 13 0.00000
chimesFF: 	3 2 13 0.00000
chimesFF: 	2 13 3 0.00000
chimesFF: 	13 2 3 0.00000
chimesFF: 	3 13 2 0.00000
chimesFF: 	13 3 2 0.00000
chimesFF: 	2 3 14 0.05976
chimesFF: 	3 2 14 0.05976
chimesFF: 	2 14 3 0.05976
chimesFF: 	14 2 3 0.05976
chimesFF: 	3 14 2 0.05976
chimesFF: 	14 3 2 0.05976
chimesFF: 	2 4 4 -1.75800
chimesFF: 	4 2 4 -1.75800
chimesFF: 	4 4 2 -1.75800
chimesFF: 	2 4 5 0.00000
chimesFF: 	4 2 5 0.00000
chimesFF: 	2 5 4 0.00000
chimesFF: 	5 2 4 0.00000
chimesFF: 	4 5 2 0.00000
chimesFF: 	5 4 2 0.00000
chimesFF: 	2 4 6 0.00000
chimesFF: 	4 2 6 0.00000
chimesFF: 	2 6 4 0.00000
chimesFF: 	6 2 4 0.00000
chimesFF: 	4 6 2 0.00000
chimesFF: 	6 4 2 0.00000
chimesFF: 	2 4 7 -18.07129
chimesFF: 	4 2 7 -18.07129
chimesFF: 	2 7 4 -18.07129
chimesFF: 	7 2 4 -18.07129
chimesFF: 	4 7 2 -18.07129
chimesFF: 	7 4 2 -18.07129
chimesFF: 	2 4 8 32.48003
chimesFF: 	4 2 8 32.48003
chimesFF: 	2 8 4 32.48003
chimesFF: 	8 2 4 32.48003
chimesFF: 	4 8 2 32.48003
chimesFF: 	8 4 2 32.48003
chimesFF: 	2 4 9 0.00000
chimesFF: 	4 2 9 0.00000
chimesFF: 	2 9 4 0.00000
chimesFF: 	9 2 4 0.00000
chimesFF: 	4 9 2 0.00000
chimesFF: 	9 4 2 0.00000
chimesFF: 	2 4 10 13.85534
chimesFF: 	4 2 10 13.85534
chimesFF: 	2 10 4 13.85534
chimesFF: 	10 2 4 13.85534
chimesFF: 	4 10 2 13.85534
chimesFF: 	10 4 2 13.85534
chimesFF: 	2 4 11 0.00000
chimesFF: 	4 2 11 0.00000
chimesFF: 	2 11 4 0.00000
chimesFF: 	11 2 4 0.00000
chimesFF: 	4 11 2 0.00000
chimesFF: 	11 4 2 0.00000
chimesFF: 	2 4 12 -4.40732
chimesFF: 	4 2 12 -4.40732
chimesFF: 	2 12 4 -4.40732
chimesFF: 	12 2 4 -4.40732
chimesFF: 	4 12 2 -4.40732
chimesFF: 	12 4 2 -4.40732
chimesFF: 	2 4 13 5.67831
chimesFF: 	4 2 13 5.67831
chimesFF: 	2 13 4 5.67831
chimesFF: 	13 2 4 5.67831
chimesFF: 	4 13 2 5.67831
chimesFF: 	13 4 2 5.67831
chimesFF: 	2 4 14 0.46845
chimesFF: 	4 2 14 0.46845
chimesFF: 	2 14 4 0.46845
chimesFF: 	14 2 4 0.46845
chimesFF: 	4 14 2 0.46845
chimesFF: 	14 4 2 0.46845
chimesFF: 	2 5 5 0.00000
chimesFF: 	5 2 5 0.00000
chimesFF: 	5 5 2 0.00000
chimesFF: 	2 5 6 0.00000
chimesFF: 	5 2 6 0.00000
chimesFF: 	2 6 5 0.00000
chimesFF: 	6 2 5 0.00000
chimesFF: 	5 6 2 0.00000
chimesFF: 	6 5 2 0.00000
chimesFF: 	2 5 7 0.00000
chimesFF: 	5 2 7 0.00000
chimesFF: 	2 7 5 0.00000
chimesFF: 	7 2 5 0.00000
chimesFF: 	5 7 2 0.00000
chimesFF: 	7 5 2 0.00000
chimesFF: 	2 5 8 -22.34256
chimesFF: 	5 2 8 -22.34256
chimesFF: 	2 8 5 -22.34256
chimesFF: 	8 2 5 -22.34256
chimesFF: 	5 8 2 -22.34256
chimesFF: 	8 5 2 -22.34256
chimesFF: 	2 5 9 9.73368
chimesFF: 	5 2 9 9.73368
chimesFF: 	2 9 5 9.73368
chimesFF: 	9 2 5 9.73368
chimesFF: 	5 9 2 9.73368
chimesFF: 	9 5 2 9.73368
chimesFF: 	2 5 10 -0.24451
chimesFF: 	5 2 10 -0.24451
chimesFF: 	2 10 5 -0.24451
chimesFF: 	10 2 5 -0.24451
chimesFF: 	5 10 2 -0.24451
chimesFF: 	10 5 2 -0.24451
chimesFF: 	2 5 11 2.36119
chimesFF: 	5 2 11 2.36119
chimesFF: 	2 11 5 2.36119
chimesFF: 	11 2 5 2.36119
chimesFF: 	5 11 2 2.36119
chimesFF: 	11 5 2 2.36119
chimesFF: 	2 5 12 -0.78361
chimesFF: 	5 2 12 -0.78361
chimesFF: 	2 12 5 -0.78361
chimesFF: 	12 2 5 -0.78361
chimesFF: 	5 12 2 -0.78361
chimesFF: 	12 5 2 -0.78361
chimesFF: 	2 5 13 -6.79189
chimesFF: 	5 2 13 -6.79189
chimesFF: 	2 13 5 -6.79189
chimesFF: 	13 2 5 -6.79189
chimesFF: 	5 13 2 -6.79189
chimesFF: 	13 5 2 -6.79189
chimesFF: 	2 5 14 1.21677
chimesFF: 	5 2 14 1.21677
chimesFF: 	2 14 5 1.21677
chimesFF: 	14 2 5 1.21677
chimesFF: 	5 14 2 1.21677
chimesFF: 	14 5 2 1.21677
chimesFF: 	2 6 6 0.00000
chimesFF: 	6 2 6 0.00000
chimesFF: 	6 6 2 0.00000
chimesFF: 	2 6 7 3.13150
chimesFF: 	6 2 7 3.13150
chimesFF: 	2 7 6 3.13150
chimesFF: 	7 2 6 3.13150
chimesFF: 	6 7 2 3.13150
chimesFF: 	7 6 2 3.13150
chimesFF: 	2 6 8 2.03013
chimesFF: 	6 2 8 2.03013
chimesFF: 	2 8 6 2.03013
chimesFF: 	8 2 6 2.03013
chimesFF: 	6 8 2 2.03013
chimesFF: 	8 6 2 2.03013
chimesFF: 	2 6 9 -4.14808
chimesFF: 	6 2 9 -4.14808
chimesFF: 	2 9 6 -4.14808
chimesFF: 	9 2 6 -4.14808
chimesFF: 	6 9 2 -4.14808
chimesFF: 	9 6 2 -4.14808
chimesFF: 	2 6 10 0.00000
chimesFF: 	6 2 10 0.00000
chimesFF: 	2 10 6 0.00000
chimesFF: 	10 2 6 0.00000
chimesFF: 	6 10 2 0.00000
chimesFF: 	10 6 2 0.00000
chimesFF: 	2 6 11 0.55597
chimesFF: 	6 2 11 0.55597
chimesFF: 	2 11 6 0.55597
chimesFF: 	11 2 6 0.55597
chimesFF: 	6 11 2 0.55597
chimesFF: 	11 6 2 0.55597
chimesFF: 	2 6 12 2.27612
chimesFF: 	6 2 12 2.27612
chimesFF: 	2 12 6 2.27612
chimesFF: 	12 2 6 2.27612
chimesFF: 	6 12 2 2.27612
chimesFF: 	12 6 2 2.27612
chimesFF: 	2 6 13 3.80313
chimesFF: 	6 2 13 3.80313
chimesFF: 	2 13 6 3.80313
chimesFF: 	13 2 6 3.80313
chimesFF: 	6 13 2 3.80313
chimesFF: 	13 6 2 3.80313
chimesFF: 	2 6 14 8.80518
chimesFF: 	6 2 14 8.80518
chimesFF: 	2 14 6 8.80518
chimesFF: 	14 2 6 8.80518
chimesFF: 	6 14 2 8.80518
chimesFF: 	14 6 2 8.80518
chimesFF: 	2 7 7 0.00000
chimesFF: 	7 2 7 0.00000
chimesFF: 	7 7 2 0.00000
chimesFF: 	2 7 8 0.00000
chimesFF: 	7 2 8 0.00000
chimesFF: 	2 8 7 0.00000
chimesFF: 	8 2 7 0.00000
chimesFF: 	7 8 2 0.00000
chimesFF: 	8 7 2 0.00000
chimesFF: 	2 7 9 -2.02907
chimesFF: 	7 2 9 -2.02907
chimesFF: 	2 9 7 -2.02907
chimesFF: 	9 2 7 -2.02907
chimesFF: 	7 9 2 -2.02907
chimesFF: 	9 7 2 -2.02907
chimesFF: 	2 7 10 -13.47279
chimesFF: 	7 2 10 -13.47279
chimesFF: 	2 10 7 -13.47279
chimesFF: 	10 2 7 -13.47279
chimesFF: 	7 10 2 -13.47279
chimesFF: 	10 7 2 -13.47279
chimesFF: 	2 7 11 0.00000
chimesFF: 	7 2 11 0.00000
chimesFF: 	2 11 7 0.00000
chimesFF: 	11 2 7 0.00000
chimesFF: 	7 11 2 0.00000
chimesFF: 	11 7 2 0.00000
chimesFF: 	2 7 12 3.05698
chimesFF: 	7 2 12 3.05698
chimesFF: 	2 12 7 3.05698
chimesFF: 	12 2 7 3.05698
chimesFF: 	7 12 2 3.05698
chimesFF: 	12 7 2 3.05698
chimesFF: 	2 7 13 0.00000
chimesFF: 	7 2 13 0.00000
chimesFF: 	2 13 7 0.00000
chimesFF: 	13 2 7 0.00000
chimesFF: 	7 13 2 0.00000
chimesFF: 	13 7 2 0.00000
chimesFF: 	2 7 14 0.00000
chimesFF: 	7 2 14 0.00000
chimesFF: 	2 14 7 0.00000
chimesFF: 	14 2 7 0.00000
chimesFF: 	7 14 2 0.00000
chimesFF: 	14 7 2 0.00000
chimesFF: 	2 8 8 0.00000
chimesFF: 	8 2 8 0.00000
chimesFF: 	8 8 2 0.00000
chimesFF: 	2 8 9 0.00000
chimesFF: 	8 2 9 0.00000
chimesFF: 	2 9 8 0.00000
chimesFF: 	9 2 8 0.00000
chimesFF: 	8 9 2 0.00000
chimesFF: 	9 8 2 0.00000
chimesFF: 	2 8 10 6.64424
chimesFF: 	8 2 10 6.64424
chimesFF: 	2 10 8 6.64424
chimesFF: 	10 2 8 6.64424
chimesFF: 	8 10 2 6.64424
chimesFF: 	10 8 2 6.64424
chimesFF: 	2 8 11 -5.93242
chimesFF: 	8 2 11 -5.93242
chimesFF: 	2 11 8 -5.93242
chimesFF: 	11 2 8 -5.93242
chimesFF: 	8 11 2 -5.93242
chimesFF: 	11 8 2 -5.93242
chimesFF: 	2 8 12 -4.23781
chimesFF: 	8 2 12 -4.23781
chimesFF: 	2 12 8 -4.23781
chimesFF: 	12 2 8 -4.23781
chimesFF: 	8 12 2 -4.23781
chimesFF: 	12 8 2 -4.23781
chimesFF: 	2 8 13 4.33318
chimesFF: 	8 2 13 4.33318
chimesFF: 	2 13 8 4.33318
chimesFF: 	13 2 8 4.33318
chimesFF: 	8 13 2 4.33318
chimesFF: 	13 8 2 4.33318
chimesFF: 	2 8 14 3.63951
chimesFF: 	8 2 14 3.63951
chimesFF: 	2 14 8 3.63951
chimesFF: 	14 2 8 3.63951
chimesFF: 	8 14 2 3.63951
chimesFF: 	14 8 2 3.63951
chimesFF: 	2 9 9 -0.80802
chimesFF: 	9 2 9 -0.80802
chimesFF: 	9 9 2 -0.80802
chimesFF: 	2 9 10 0.00000
chimesFF: 	9 2 10 0.00000
chimesFF: 	2 10 9 0.00000
chimesFF: 	10 2 9 0.00000
chimesFF: 	9 10 2 0.00000
chimesFF: 	10 9 2 0.00000
chimesFF: 	2 9 11 -0.33436
chimesFF: 	9 2 11 -0.33436
chimesFF: 	2 11 9 -0.33436
chimesFF: 	11 2 9 -0.33436
chimesFF: 	9 11 2 -0.33436
chimesFF: 	11 9 2 -0.33436
chimesFF: 	2 9 12 -2.15760
chimesFF: 	9 2 12 -2.15760
chimesFF: 	2 12 9 -2.15760
chimesFF: 	12 2 9 -2.15760
chimesFF: 	9 12 2 -2.15760
chimesFF: 	12 9 2 -2.15760
chimesFF: 	2 9 13 0.00000
chimesFF: 	9 2 13 0.00000
chimesFF: 	2 13 9 0.00000
chimesFF: 	13 2 9 0.00000
chimesFF: 	9 13 2 0.00000
chimesFF: 	13 9 2 0.00000
chimesFF: 	2 9 14 -0.69495
chimesFF: 	9 2 14 -0.69495
chimesFF: 	2 14 9 -0.69495
chimesFF: 	14 2 9 -0.69495
chimesFF: 	9 14 2 -0.69495
chimesFF: 	14 9 2 -0.69495
chimesFF: 	2 10 10 47.52933
chimesFF: 	10 2 10 47.52933
chimesFF: 	10 10 2 47.52933
chimesFF: 	2 10 11 -4.28860
chimesFF: 	10 2 11 -4.28860
chimesFF: 	2 11 10 -4.28860
chimesFF: 	11 2 10 -4.28860
chimesFF: 	10 11 2 -4.28860
chimesFF: 	11 10 2 -4.28860
chimesFF: 	2 10 12 14.88290
chimesFF: 	10 2 12 14.88290
chimesFF: 	2 12 10 14.88290
chimesFF: 	12 2 10 14.88290
chimesFF: 	10 12 2 14.88290
chimesFF: 	12 10 2 14.88290
chimesFF: 	2 10 13 0.00000
chimesFF: 	10 2 13 0.00000
chimesFF: 	2 13 10 0.00000
chimesFF: 	13 2 10 0.00000
chimesFF: 	10 13 2 0.00000
chimesFF: 	13 10 2 0.00000
chimesFF: 	2 10 14 5.21979
chimesFF: 	10 2 14 5.21979
chimesFF: 	2 14 10 5.21979
chimesFF: 	14 2 10 5.21979
chimesFF: 	10 14 2 5.21979
chimesFF: 	14 10 2 5.21979
chimesFF: 	2 11 11 5.98064
chimesFF: 	11 2 11 5.98064
chimesFF: 	11 11 2 5.98064
chimesFF: 	2 11 12 -5.80283
chimesFF: 	11 2 12 -5.80283
chimesFF: 	2 12 11 -5.80283
chimesFF: 	12 2 11 -5.80283
chimesFF: 	11 12 2 -5.80283
chimesFF: 	12 11 2 -5.80283
chimesFF: 	2 11 13 3.64620
chimesFF: 	11 2 13 3.64620
chimesFF: 	2 13 11 3.64620
chimesFF: 	13 2 11 3.64620
chimesFF: 	11 13 2 3.64620
chimesFF: 	13 11 2 3.64620
chimesFF: 	2 11 14 1.81785
chimesFF: 	11 2 14 1.81785
chimesFF: 	2 14 11 1.81785
chimesFF: 	14 2 11 1.81785
chimesFF: 	11 14 2 1.81785
chimesFF: 	14 11 2 1.81785
chimesFF: 	2 12 12 0.00000
chimesFF: 	12 2 12 0.00000
chimesFF: 	12 12 2 0.00000
chimesFF: 	2 12 13 0.54638
chimesFF: 	12 2 13 0.54638
chimesFF: 	2 13 12 0.54638
chimesFF: 	13 2 12 0.54638
chimesFF: 	12 13 2 0.54638
chimesFF: 	13 12 2 0.54638
chimesFF: 	2 12 14 -4.71382
chimesFF: 	12 2 14 -4.71382
chimesFF: 	2 14 12 -4.71382
chimesFF: 	14 2 12 -4.71382
chimesFF: 	12 14 2 -4.71382
chimesFF: 	14 12 2 -4.71382
chimesFF: 	2 13 13 0.63918
chimesFF: 	13 2 13 0.63918
chimesFF: 	13 13 2 0.63918
chimesFF: 	2 13 14 0.13211
chimesFF: 	13 2 14 0.13211
chimesFF: 	2 14 13 0.13211
chimesFF: 	14 2 13 0.13211
chimesFF: 	13 14 2 0.13211
chimesFF: 	14 13 2 0.13211
chimesFF: 	2 14 14 -9.17647
chimesFF: 	14 2 14 -9.17647
chimesFF: 	14 14 2 -9.17647
chimesFF: 	3 3 3 22.63557
chimesFF: 	3 3 4 0.27779
chimesFF: 	3 4 3 0.27779
chimesFF: 	4 3 3 0.27779
chimesFF: 	3 3 5 0.00000
chimesFF: 	3 5 3 0.00000
chimesFF: 	5 3 3 0.00000
chimesFF: 	3 3 6 1.07447
chimesFF: 	3 6 3 1.07447
chimesFF: 	6 3 3 1.07447
chimesFF: 	3 3 7 -20.75419
chimesFF: 	3 7 3 -20.75419
chimesFF: 	7 3 3 -20.75419
chimesFF: 	3 3 8 -27.45032
chimesFF: 	3 8 3 -27.45032
chimesFF: 	8 3 3 -27.45032
chimesFF: 	3 3 9 45.82378
chimesFF: 	3 9 3 45.82378
chimesFF: 	9 3 3 45.82378
chimesFF: 	3 3 10 -8.26049
chimesFF: 	3 10 3 -8.26049
chimesFF: 	10 3 3 -8.26049
chimesFF: 	3 3 11 -7.75097
chimesFF: 	3 11 3 -7.75097
chimesFF: 	11 3 3 -7.75097
chimesFF: 	3 3 12 2.31936
chimesFF: 	3 12 3 2.31936
chimesFF: 	12 3 3 2.31936
chimesFF: 	3 3 13 -15.43804
chimesFF: 	3 13 3 -15.43804
chimesFF: 	13 3 3 -15.43804
chimesFF: 	3 3 14 -1.68738
chimesFF: 	3 14 3 -1.68738
chimesFF: 	14 3 3 -1.68738
chimesFF: 	3 4 4 -64.36324
chimesFF: 	4 3 4 -64.36324
chimesFF: 	4 4 3 -64.36324
chimesFF: 	3 4 5 -9.39448
chimesFF: 	4 3 5 -9.39448
chimesFF: 	3 5 4 -9.39448
chimesFF: 	5 3 4 -9.39448
chimesFF: 	4 5 3 -9.39448
chimesFF: 	5 4 3 -9.39448
chimesFF: 	3 4 6 -30.93777
chimesFF: 	4 3 6 -30.93777
chimesFF: 	3 6 4 -30.93777
chimesFF: 	6 3 4 -30.93777
chimesFF: 	4 6 3 -30.93777
chimesFF: 	6 4 3 -30.93777
chimesFF: 	3 4 7 70.44514
chimesFF: 	4 3 7 70.44514
chimesFF: 	3 7 4 70.44514
chimesFF: 	7 3 4 70.44514
chimesFF: 	4 7 3 70.44514
chimesFF: 	7 4 3 70.44514
chimesFF: 	3 4 8 5.11002
chimesFF: 	4 3 8 5.11002
chimesFF: 	3 8 4 5.11002
chimesFF: 	8 3 4 5.11002
chimesFF: 	4 8 3 5.11002
chimesFF: 	8 4 3 5.11002
chimesFF: 	3 4 9 -4.78066
chimesFF: 	4 3 9 -4.78066
chimesFF: 	3 9 4 -4.78066
chimesFF: 	9 3 4 -4.78066
chimesFF: 	4 9 3 -4.78066
chimesFF: 	9 4 3 -4.78066
chimesFF: 	3 4 10 0.00000
chimesFF: 	4 3 10 0.00000
chimesFF: 	3 10 4 0.00000
chimesFF: 	10 3 4 0.00000
chimesFF: 	4 10 3 0.00000
chimesFF: 	10 4 3 0.00000
chimesFF: 	3 4 11 0.00000
chimesFF: 	4 3 11 0.00000
chimesFF: 	3 11 4 0.00000
chimesFF: 	11 3 4 0.00000
chimesFF: 	4 11 3 0.00000
chimesFF: 	11 4 3 0.00000
chimesFF: 	3 4 12 7.44307
chimesFF: 	4 3 12 7.44307
chimesFF: 	3 12 4 7.44307
chimesFF: 	12 3 4 7.44307
chimesFF: 	4 12 3 7.44307
chimesFF: 	12 4 3 7.44307
chimesFF: 	3 4 13 3.87692
chimesFF: 	4 3 13 3.87692
chimesFF: 	3 13 4 3.87692
chimesFF: 	13 3 4 3.87692
chimesFF: 	4 13 3 3.87692
chimesFF: 	13 4 3 3.87692
chimesFF: 	3 4 14 4.82689
chimesFF: 	4 3 14 4.82689
chimesFF: 	3 14 4 4.82689
chimesFF: 	14 3 4 4.82689
chimesFF: 	4 14 3 4.82689
chimesFF: 	14 4 3 4.82689
chimesFF: 	3 5 5 0.00000
chimesFF: 	5 3 5 0.00000
chimesFF: 	5 5 3 0.00000
chimesFF: 	3 5 6 0.00000
chimesFF: 	5 3 6 0.00000
chimesFF: 	3 6 5 0.00000
chimesFF: 	6 3 5 0.00000
chimesFF: 	5 6 3 0.00000
chimesFF: 	6 5 3 0.00000
chimesFF: 	3 5 7 0.00000
chimesFF: 	5 3 7 0.00000
chimesFF: 	3 7 5 0.00000
chimesFF: 	7 3 5 0.00000
chimesFF: 	5 7 3 0.00000
chimesFF: 	7 5 3 0.00000
chimesFF: 	3 5 8 -18.40074
chimesFF: 	5 3 8 -18.40074
chimesFF: 	3 8 5 -18.40074
chimesFF: 	8 3 5 -18.40074
chimesFF: 	5 8 3 -18.40074
chimesFF: 	8 5 3 -18.40074
chimesFF: 	3 5 9 20.04370
chimesFF: 	5 3 9 20.04370
chimesFF: 	3 9 5 20.04370
chimesFF: 	9 3 5 20.04370
chimesFF: 	5 9 3 20.04370
chimesFF: 	9 5 3 20.04370
chimesFF: 	3 5 10 -17.14489
chimesFF: 	5 3 10 -17.14489
chimesFF: 	3 10 5 -17.14489
chimesFF: 	10 3 5 -17.14489
chimesFF: 	5 10 3 -17.14489
chimesFF: 	10 5 3 -17.14489
chimesFF: 	3 5 11 -7.09083
chimesFF: 	5 3 11 -7.09083
chimesFF: 	3 11 5 -7.09083
chimesFF: 	11 3 5 -7.09083
chimesFF: 	5 11 3 -7.09083
chimesFF: 	11 5 3 -7.09083
chimesFF: 	3 5 12 -3.92817
chimesFF: 	5 3 12 -3.92817
chimesFF: 	3 12 5 -3.92817
chimesFF: 	12 3 5 -3.92817
chimesFF: 	5 12 3 -3.92817
chimesFF: 	12 5 3 -3.92817
chimesFF: 	3 5 13 -4.96807
chimesFF: 	5 3 13 -4.96807
chimesFF: 	3 13 5 -4.96807
chimesFF: 	13 3 5 -4.96807
chimesFF: 	5 13 3 -4.96807
chimesFF: 	13 5 3 -4.96807
chimesFF: 	3 5 14 -3.48220
chimesFF: 	5 3 14 -3.48220
chimesFF: 	3 14 5 -3.48220
chimesFF: 	14 3 5 -3.48220
chimesFF: 	5 14 3 -3.48220
chimesFF: 	14 5 3 -3.48220
chimesFF: 	3 6 6 -16.43548
chimesFF: 	6 3 6 -16.43548
chimesFF: 	6 6 3 -16.43548
chimesFF: 	3 6 7 52.22058
chimesFF: 	6 3 7 52.22058
chimesFF: 	3 7 6 52.22058
chimesFF: 	7 3 6 52.22058
chimesFF: 	6 7 3 52.22058
chimesFF: 	7 6 3 52.22058
chimesFF: 	3 6 8 0.00000
chimesFF: 	6 3 8 0.00000
chimesFF: 	3 8 6 0.00000
chimesFF: 	8 3 6 0.00000
chimesFF: 	6 8 3 0.00000
chimesFF: 	8 6 3 0.00000
chimesFF: 	3 6 9 7.08908
chimesFF: 	6 3 9 7.08908
chimesFF: 	3 9 6 7.08908
chimesFF: 	9 3 6 7.08908
chimesFF: 	6 9 3 7.08908
chimesFF: 	9 6 3 7.08908
chimesFF: 	3 6 10 -14.09692
chimesFF: 	6 3 10 -14.09692
chimesFF: 	3 10 6 -14.09692
chimesFF: 	10 3 6 -14.09692
chimesFF: 	6 10 3 -14.09692
chimesFF: 	10 6 3 -14.09692
chimesFF: 	3 6 11 0.00000
chimesFF: 	6 3 11 0.00000
chimesFF: 	3 11 6 0.00000
chimesFF: 	11 3 6 0.00000
chimesFF: 	6 11 3 0.00000
chimesFF: 	11 6 3 0.00000
chimesFF: 	3 6 12 -9.44374
chimesFF: 	6 3 12 -9.44374
chimesFF: 	3 12 6 -9.44374
chimesFF: 	12 3 6 -9.44374
chimesFF: 	6 12 3 -9.44374
chimesFF: 	12 6 3 -9.44374
chimesFF: 	3 6 13 0.80268
chimesFF: 	6 3 13 0.80268
chimesFF: 	3 13 6 0.80268
chimesFF: 	13 3 6 0.80268
chimesFF: 	6 13 3 0.80268
chimesFF: 	13 6 3 0.80268
chimesFF: 	3 6 14 -0.91987
chimesFF: 	6 3 14 -0.91987
chimesFF: 	3 14 6 -0.91987
chimesFF: 	14 3 6 -0.91987
chimesFF: 	6 14 3 -0.91987
chimesFF: 	14 6 3 -0.91987
chimesFF: 	3 7 7 -11.41299
chimesFF: 	7 3 7 -11.41299
chimesFF: 	7 7 3 -11.41299
chimesFF: 	3 7 8 -0.70452
chimesFF: 	7 3 8 -0.70452
chimesFF: 	3 8 7 -0.70452
chimesFF: 	8 3 7 -0.70452
chimesFF: 	7 8 3 -0.70452
chimesFF: 	8 7 3 -0.70452
chimesFF: 	3 7 9 12.86149
chimesFF: 	7 3 9 12.86149
chimesFF: 	3 9 7 12.86149
chimesFF: 	9 3 7 12.86149
chimesFF: 	7 9 3 12.86149
chimesFF: 	9 7 3 12.86149
chimesFF: 	3 7 10 0.00000
chimesFF: 	7 3 10 0.00000
chimesFF: 	3 10 7 0.00000
chimesFF: 	10 3 7 0.00000
chimesFF: 	7 10 3 0.00000
chimesFF: 	10 7 3 0.00000
chimesFF: 	3 7 11 4.59927
chimesFF: 	7 3 11 4.59927
chimesFF: 	3 11 7 4.59927
chimesFF: 	11 3 7 4.59927
chimesFF: 	7 11 3 4.59927
chimesFF: 	11 7 3 4.59927
chimesFF: 	3 7 12 0.00000
chimesFF: 	7 3 12 0.00000
chimesFF: 	3 12 7 0.00000
chimesFF: 	12 3 7 0.00000
chimesFF: 	7 12 3 0.00000
chimesFF: 	12 7 3 0.00000
chimesFF: 	3 7 13 0.59223
chimesFF: 	7 3 13 0.59223
chimesFF: 	3 13 7 0.59223
chimesFF: 	13 3 7 0.59223
chimesFF: 	7 13 3 0.59223
chimesFF: 	13 7 3 0.59223
chimesFF: 	3 7 14 -0.38642
chimesFF: 	7 3 14 -0.38642
chimesFF: 	3 14 7 -0.38642
chimesFF: 	14 3 7 -0.38642
chimesFF: 	7 14 3 -0.38642
chimesFF: 	14 7 3 -0.38642
chimesFF: 	3 8 8 -11.04179
chimesFF: 	8 3 8 -11.04179
chimesFF: 	8 8 3 -11.04179
chimesFF: 	3 8 9 -4.76579
chimesFF: 	8 3 9 -4.76579
chimesFF: 	3 9 8 -4.76579
chimesFF: 	9 3 8 -4.76579
chimesFF: 	8 9 3 -4.76579
chimesFF: 	9 8 3 -4.76579
chimesFF: 	3 8 10 -6.26467
chimesFF: 	8 3 10 -6.26467
chimesFF: 	3 10 8 -6.26467
chimesFF: 	10 3 8 -6.26467
chimesFF: 	8 10 3 -6.26467
chimesFF: 	10 8 3 -6.26467
chimesFF: 	3 8 11 6.70216
chimesFF: 	8 3 11 6.70216
chimesFF: 	3 11 8 6.70216
chimesFF: 	11 3 8 6.70216
chimesFF: 	8 11 3 6.70216
chimesFF: 	11 8 3 6.70216
chimesFF: 	3 8 12 -0.49948
chimesFF: 	8 3 12 -0.49948
chimesFF: 	3 12 8 -0.49948
chimesFF: 	12 3 8 -0.49948
chimesFF: 	8 12 3 -0.49948
chimesFF: 	12 8 3 -0.49948
chimesFF: 	3 8 13 -0.26488
chimesFF: 	8 3 13 -0.26488
chimesFF: 	3 13 8 -0.26488
chimesFF: 	13 3 8 -0.26488
chimesFF: 	8 13 3 -0.26488
chimesFF: 	13 8 3 -0.26488
chimesFF: 	3 8 14 3.21129
chimesFF: 	8 3 14 3.21129
chimesFF: 	3 14 8 3.21129
chimesFF: 	14 3 8 3.21129
chimesFF: 	8 14 3 3.21129
chimesFF: 	14 8 3 3.21129
chimesFF: 	3 9 9 -5.14206
chimesFF: 	9 3 9 -5.14206
chimesFF: 	9 9 3 -5.14206
chimesFF: 	3 9 10 -5.22670
chimesFF: 	9 3 10 -5.22670
chimesFF: 	3 10 9 -5.22670
chimesFF: 	10 3 9 -5.22670
chimesFF: 	9 10 3 -5.22670
chimesFF: 	10 9 3 -5.22670
chimesFF: 	3 9 11 -3.67863
chimesFF: 	9 3 11 -3.67863
chimesFF: 	3 11 9 -3.67863
chimesFF: 	11 3 9 -3.67863
chimesFF: 	9 11 3 -3.67863
chimesFF: 	11 9 3 -3.67863
chimesFF: 	3 9 12 9.08466
chimesFF: 	9 3 12 9.08466
chimesFF: 	3 12 9 9.08466
chimesFF: 	12 3 9 9.08466
chimesFF: 	9 12 3 9.08466
chimesFF: 	12 9 3 9.08466
chimesFF: 	3 9 13 1.98519
chimesFF: 	9 3 13 1.98519
chimesFF: 	3 13 9 1.98519
chimesFF: 	13 3 9 1.98519
chimesFF: 	9 13 3 1.98519
chimesFF: 	13 9 3 1.98519
chimesFF: 	3 9 14 0.21530
chimesFF: 	9 3 14 0.21530
chimesFF: 	3 14 9 0.21530
chimesFF: 	14 3 9 0.21530
chimesFF: 	9 14 3 0.21530
chimesFF: 	14 9 3 0.21530
chimesFF: 	3 10 10 -11.73817
chimesFF: 	10 3 10 -11.73817
chimesFF: 	10 10 3 -11.73817
chimesFF: 	3 10 11 1.34726
chimesFF: 	10 3 11 1.34726
chimesFF: 	3 11 10 1.34726
chimesFF: 	11 3 10 1.34726
chimesFF: 	10 11 3 1.34726
chimesFF: 	11 10 3 1.34726
chimesFF: 	3 10 12 -2.19151
chimesFF: 	10 3 12 -2.19151
chimesFF: 	3 12 10 -2.19151
chimesFF: 	12 3 10 -2.19151
chimesFF: 	10 12 3 -2.19151
chimesFF: 	12 10 3 -2.19151
chimesFF: 	3 10 13 0.00000
chimesFF: 	10 3 13 0.00000
chimesFF: 	3 13 10 0.00000
chimesFF: 	13 3 10 0.00000
chimesFF: 	10 13 3 0.00000
chimesFF: 	13 10 3 0.00000
chimesFF: 	3 10 14 3.55230
chimesFF: 	10 3 14 3.55230
chimesFF: 	3 14 10 3.55230
chimesFF: 	14 3 10 3.55230
chimesFF: 	10 14 3 3.55230
chimesFF: 	14 10 3 3.55230
chimesFF: 	3 11 11 -7.49652
chimesFF: 	11 3 11 -7.49652
chimesFF: 	11 11 3 -7.49652
chimesFF: 	3 11 12 8.35801
chimesFF: 	11 3 12 8.35801
chimesFF: 	3 12 11 8.35801
chimesFF: 	12 3 11 8.35801
chimesFF: 	11 12 3 8.35801
chimesFF: 	12 11 3 8.35801
chimesFF: 	3 11 13 -1.31954
chimesFF: 	11 3 13 -1.31954
chimesFF: 	3 13 11 -1.31954
chimesFF: 	13 3 11 -1.31954
chimesFF: 	11 13 3 -1.31954
chimesFF: 	13 11 3 -1.31954
chimesFF: 	3 11 14 -2.08352
chimesFF: 	11 3 14 -2.08352
chimesFF: 	3 14 11 -2.08352
chimesFF: 	14 3 11 -2.08352
chimesFF: 	11 14 3 -2.08352
chimesFF: 	14 11 3 -2.08352
chimesFF: 	3 12 12 4.23082
chimesFF: 	12 3 12 4.23082
chimesFF: 	12 12 3 4.23082
chimesFF: 	3 12 13 0.72133
chimesFF: 	12 3 13 0.72133
chimesFF: 	3 13 12 0.72133
chimesFF: 	13 3 12 0.72133
chimesFF: 	12 13 3 0.72133
chimesFF: 	13 12 3 0.72133
chimesFF: 	3 12 14 9.52544
chimesFF: 	12 3 14 9.52544
chimesFF: 	3 14 12 9.52544
chimesFF: 	14 3 12 9.52544
chimesFF: 	12 14 3 9.52544
chimesFF: 	14 12 3 9.52544
chimesFF: 	3 13 13 0.55019
chimesFF: 	13 3 13 0.55019
chimesFF: 	13 13 3 0.55019
chimesFF: 	3 13 14 0.00000
chimesFF: 	13 3 14 0.00000
chimesFF: 	3 14 13 0.00000
chimesFF: 	14 3 13 0.00000
chimesFF: 	13 14 3 0.00000
chimesFF: 	14 13 3 0.00000
chimesFF: 	3 14 14 11.13523
chimesFF: 	14 3 14 11.13523
chimesFF: 	14 14 3 11.13523
chimesFF: 	4 4 4 56.66456
chimesFF: 	4 4 5 -23.45677
chimesFF: 	4 5 4 -23.45677
chimesFF: 	5 4 4 -23.45677
chimesFF: 	4 4 6 47.40391
chimesFF: 	4 6 4 47.40391
chimesFF: 	6 4 4 47.40391
chimesFF: 	4 4 7 -65.04927
chimesFF: 	4 7 4 -65.04927
chimesFF: 	7 4 4 -65.04927
chimesFF: 	4 4 8 49.66066
chimesFF: 	4 8 4 49.66066
chimesFF: 	8 4 4 49.66066
chimesFF: 	4 4 9 -23.89160
chimesFF: 	4 9 4 -23.89160
chimesFF: 	9 4 4 -23.89160
chimesFF: 	4 4 10 30.45865
chimesFF: 	4 10 4 30.45865
chimesFF: 	10 4 4 30.45865
chimesFF: 	4 4 11 -24.64719
chimesFF: 	4 11 4 -24.64719
chimesFF: 	11 4 4 -24.64719
chimesFF: 	4 4 12 2.92931
chimesFF: 	4 12 4 2.92931
chimesFF: 	12 4 4 2.92931
chimesFF: 	4 4 13 -6.43617
chimesFF: 	4 13 4 -6.43617
chimesFF: 	13 4 4 -6.43617
chimesFF: 	4 4 14 2.87863
chimesFF: 	4 14 4 2.87863
chimesFF: 	14 4 4 2.87863
chimesFF: 	4 5 5 7.47150
chimesFF: 	5 4 5 7.47150
chimesFF: 	5 5 4 7.47150
chimesFF: 	4 5 6 0.00000
chimesFF: 	5 4 6 0.00000
chimesFF: 	4 6 5 0.00000
chimesFF: 	6 4 5 0.00000
chimesFF: 	5 6 4 0.00000
chimesFF: 	6 5 4 0.00000
chimesFF: 	4 5 7 19.57261
chimesFF: 	5 4 7 19.57261
chimesFF: 	4 7 5 19.57261
chimesFF: 	7 4 5 19.57261
chimesFF: 	5 7 4 19.57261
chimesFF: 	7 5 4 19.57261
chimesFF: 	4 5 8 -4.26616
chimesFF: 	5 4 8 -4.26616
chimesFF: 	4 8 5 -4.26616
chimesFF: 	8 4 5 -4.26616
chimesFF: 	5 8 4 -4.26616
chimesFF: 	8 5 4 -4.26616
chimesFF: 	4 5 9 -7.48220
chimesFF: 	5 4 9 -7.48220
chimesFF: 	4 9 5 -7.48220
chimesFF: 	9 4 5 -7.48220
chimesFF: 	5 9 4 -7.48220
chimesFF: 	9 5 4 -7.48220
chimesFF: 	4 5 10 0.00000
chimesFF: 	5 4 10 0.00000
chimesFF: 	4 10 5 0.00000
chimesFF: 	10 4 5 0.00000
chimesFF: 	5 10 4 0.00000
chimesFF: 	10 5 4 0.00000
chimesFF: 	4 5 11 0.00000
chimesFF: 	5 4 11 0.00000
chimesFF: 	4 11 5 0.00000
chimesFF: 	11 4 5 0.00000
chimesFF: 	5 11 4 0.00000
chimesFF: 	11 5 4 0.00000
chimesFF: 	4 5 12 10.73457
chimesFF: 	5 4 12 10.73457
chimesFF: 	4 12 5 10.73457
chimesFF: 	12 4 5 10.73457
chimesFF: 	5 12 4 10.73457
chimesFF: 	12 5 4 10.73457
chimesFF: 	4 5 13 -1.37306
chimesFF: 	5 4 13 -1.37306
chimesFF: 	4 13 5 -1.37306
chimesFF: 	13 4 5 -1.37306
chimesFF: 	5 13 4 -1.37306
chimesFF: 	13 5 4 -1.37306
chimesFF: 	4 5 14 6.24216
chimesFF: 	5 4 14 6.24216
chimesFF: 	4 14 5 6.24216
chimesFF: 	14 4 5 6.24216
chimesFF: 	5 14 4 6.24216
chimesFF: 	14 5 4 6.24216
chimesFF: 	4 6 6 19.95372
chimesFF: 	6 4 6 19.95372
chimesFF: 	6 6 4 19.95372
chimesFF: 	4 6 7 -30.81871
chimesFF: 	6 4 7 -30.81871
chimesFF: 	4 7 6 -30.81871
chimesFF: 	7 4 6 -30.81871
chimesFF: 	6 7 4 -30.81871
chimesFF: 	7 6 4 -30.81871
chimesFF: 	4 6 8 2.08544
chimesFF: 	6 4 8 2.08544
chimesFF: 	4 8 6 2.08544
chimesFF: 	8 4 6 2.08544
chimesFF: 	6 8 4 2.08544
chimesFF: 	8 6 4 2.08544
chimesFF: 	4 6 9 -17.68120
chimesFF: 	6 4 9 -17.68120
chimesFF: 	4 9 6 -17.68120
chimesFF: 	9 4 6 -17.68120
chimesFF: 	6 9 4 -17.68120
chimesFF: 	9 6 4 -17.68120
chimesFF: 	4 6 10 0.00000
chimesFF: 	6 4 10 0.00000
chimesFF: 	4 10 6 0.00000
chimesFF: 	10 4 6 0.00000
chimesFF: 	6 10 4 0.00000
chimesFF: 	10 6 4 0.00000
chimesFF: 	4 6 11 -19.55655
chimesFF: 	6 4 11 -19.55655
chimesFF: 	4 11 6 -19.55655
chimesFF: 	11 4 6 -19.55655
chimesFF: 	6 11 4 -19.55655
chimesFF: 	11 6 4 -19.55655
chimesFF: 	4 6 12 0.74093
chimesFF: 	6 4 12 0.74093
chimesFF: 	4 12 6 0.74093
chimesFF: 	12 4 6 0.74093
chimesFF: 	6 12 4 0.74093
chimesFF: 	12 6 4 0.74093
chimesFF: 	4 6 13 -5.56836
chimesFF: 	6 4 13 -5.56836
chimesFF: 	4 13 6 -5.56836
chimesFF: 	13 4 6 -5.56836
chimesFF: 	6 13 4 -5.56836
chimesFF: 	13 6 4 -5.56836
chimesFF: 	4 6 14 6.84309
chimesFF: 	6 4 14 6.84309
chimesFF: 	4 14 6 6.84309
chimesFF: 	14 4 6 6.84309
chimesFF: 	6 14 4 6.84309
chimesFF: 	14 6 4 6.84309
chimesFF: 	4 7 7 24.05363
chimesFF: 	7 4 7 24.05363
chimesFF: 	7 7 4 24.05363
chimesFF: 	4 7 8 -8.35611
chimesFF: 	7 4 8 -8.35611
chimesFF: 	4 8 7 -8.35611
chimesFF: 	8 4 7 -8.35611
chimesFF: 	7 8 4 -8.35611
chimesFF: 	8 7 4 -8.35611
chimesFF: 	4 7 9 0.00000
chimesFF: 	7 4 9 0.00000
chimesFF: 	4 9 7 0.00000
chimesFF: 	9 4 7 0.00000
chimesFF: 	7 9 4 0.00000
chimesFF: 	9 7 4 0.00000
chimesFF: 	4 7 10 -6.72169
chimesFF: 	7 4 10 -6.72169
chimesFF: 	4 10 7 -6.72169
chimesFF: 	10 4 7 -6.72169
chimesFF: 	7 10 4 -6.72169
chimesFF: 	10 7 4 -6.72169
chimesFF: 	4 7 11 8.51113
chimesFF: 	7 4 11 8.51113
chimesFF: 	4 11 7 8.51113
chimesFF: 	11 4 7 8.51113
chimesFF: 	7 11 4 8.51113
chimesFF: 	11 7 4 8.51113
chimesFF: 	4 7 12 15.23185
chimesFF: 	7 4 12 15.23185
chimesFF: 	4 12 7 15.23185
chimesFF: 	12 4 7 15.23185
chimesFF: 	7 12 4 15.23185
chimesFF: 	12 7 4 15.23185
chimesFF: 	4 7 13 6.06269
chimesFF: 	7 4 13 6.06269
chimesFF: 	4 13 7 6.06269
chimesFF: 	13 4 7 6.06269
chimesFF: 	7 13 4 6.06269
chimesFF: 	13 7 4 6.06269
chimesFF: 	4 7 14 4.43486
chimesFF: 	7 4 14 4.43486
chimesFF: 	4 14 7 4.43486
chimesFF: 	14 4 7 4.43486
chimesFF: 	7 14 4 4.43486
chimesFF: 	14 7 4 4.43486
chimesFF: 	4 8 8 -4.17379
chimesFF: 	8 4 8 -4.17379
chimesFF: 	8 8 4 -4.17379
chimesFF: 	4 8 9 -4.83173
chimesFF: 	8 4 9 -4.83173
chimesFF: 	4 9 8 -4.83173
chimesFF: 	9 4 8 -4.83173
chimesFF: 	8 9 4 -4.83173
chimesFF: 	9 8 4 -4.83173
chimesFF: 	4 8 10 -1.46519
chimesFF: 	8 4 10 -1.46519
chimesFF: 	4 10 8 -1.46519
chimesFF: 	10 4 8 -1.46519
chimesFF: 	8 10 4 -1.46519
chimesFF: 	10 8 4 -1.46519
chimesFF: 	4 8 11 -18.00508
chimesFF: 	8 4 11 -18.00508
chimesFF: 	4 11 8 -18.00508
chimesFF: 	11 4 8 -18.00508
chimesFF: 	8 11 4 -18.00508
chimesFF: 	11 8 4 -18.00508
chimesFF: 	4 8 12 -8.91645
chimesFF: 	8 4 12 -8.91645
chimesFF: 	4 12 8 -8.91645
chimesFF: 	12 4 8 -8.91645
chimesFF: 	8 12 4 -8.91645
chimesFF: 	12 8 4 -8.91645
chimesFF: 	4 8 13 -2.49334
chimesFF: 	8 4 13 -2.49334
chimesFF: 	4 13 8 -2.49334
chimesFF: 	13 4 8 -2.49334
chimesFF: 	8 13 4 -2.49334
chimesFF: 	13 8 4 -2.49334
chimesFF: 	4 8 14 0.00000
chimesFF: 	8 4 14 0.00000
chimesFF: 	4 14 8 0.00000
chimesFF: 	14 4 8 0.00000
chimesFF: 	8 14 4 0.00000
chimesFF: 	14 8 4 0.00000
chimesFF: 	4 9 9 -10.68181
chimesFF: 	9 4 9 -10.68181
chimesFF: 	9 9 4 -10.68181
chimesFF: 	4 9 10 0.81743
chimesFF: 	9 4 10 0.81743
chimesFF: 	4 10 9 0.81743
chimesFF: 	10 4 9 0.81743
chimesFF: 	9 10 4 0.81743
chimesFF: 	10 9 4 0.81743
chimesFF: 	4 9 11 0.00000
chimesFF: 	9 4 11 0.00000
chimesFF: 	4 11 9 0.00000
chimesFF: 	11 4 9 0.00000
chimesFF: 	9 11 4 0.00000
chimesFF: 	11 9 4 0.00000
chimesFF: 	4 9 12 6.15369
chimesFF: 	9 4 12 6.15369
chimesFF: 	4 12 9 6.15369
chimesFF: 	12 4 9 6.15369
chimesFF: 	9 12 4 6.15369
chimesFF: 	12 9 4 6.15369
chimesFF: 	4 9 13 3.99697
chimesFF: 	9 4 13 3.99697
chimesFF: 	4 13 9 3.99697
chimesFF: 	13 4 9 3.99697
chimesFF: 	9 13 4 3.99697
chimesFF: 	13 9 4 3.99697
chimesFF: 	4 9 14 2.47923
chimesFF: 	9 4 14 2.47923
chimesFF: 	4 14 9 2.47923
chimesFF: 	14 4 9 2.47923
chimesFF: 	9 14 4 2.47923
chimesFF: 	14 9 4 2.47923
chimesFF: 	4 10 10 31.00703
chimesFF: 	10 4 10 31.00703
chimesFF: 	10 10 4 31.00703
chimesFF: 	4 10 11 -5.40987
chimesFF: 	10 4 11 -5.40987
chimesFF: 	4 11 10 -5.40987
chimesFF: 	11 4 10 -5.40987
chimesFF: 	10 11 4 -5.40987
chimesFF: 	11 10 4 -5.40987
chimesFF: 	4 10 12 10.57080
chimesFF: 	10 4 12 10.57080
chimesFF: 	4 12 10 10.57080
chimesFF: 	12 4 10 10.57080
chimesFF: 	10 12 4 10.57080
chimesFF: 	12 10 4 10.57080
chimesFF: 	4 10 13 -0.91162
chimesFF: 	10 4 13 -0.91162
chimesFF: 	4 13 10 -0.91162
chimesFF: 	13 4 10 -0.91162
chimesFF: 	10 13 4 -0.91162
chimesFF: 	13 10 4 -0.91162
chimesFF: 	4 10 14 2.10532
chimesFF: 	10 4 14 2.10532
chimesFF: 	4 14 10 2.10532
chimesFF: 	14 4 10 2.10532
chimesFF: 	10 14 4 2.10532
chimesFF: 	14 10 4 2.10532
chimesFF: 	4 11 11 9.43877
chimesFF: 	11 4 11 9.43877
chimesFF: 	11 11 4 9.43877
chimesFF: 	4 11 12 0.00000
chimesFF: 	11 4 12 0.00000
chimesFF: 	4 12 11 0.00000
chimesFF: 	12 4 11 0.00000
chimesFF: 	11 12 4 0.00000
chimesFF: 	12 11 4 0.00000
chimesFF: 	4 11 13 6.42024
chimesFF: 	11 4 13 6.42024
chimesFF: 	4 13 11 6.42024
chimesFF: 	13 4 11 6.42024
chimesFF: 	11 13 4 6.42024
chimesFF: 	13 11 4 6.42024
chimesFF: 	4 11 14 2.68258
chimesFF: 	11 4 14 2.68258
chimesFF: 	4 14 11 2.68258
chimesFF: 	14 4 11 2.68258
chimesFF: 	11 14 4 2.68258
chimesFF: 	14 11 4 2.68258
chimesFF: 	4 12 12 0.00000
chimesFF: 	12 4 12 0.00000
chimesFF: 	12 12 4 0.00000
chimesFF: 	4 12 13 0.36533
chimesFF: 	12 4 13 0.36533
chimesFF: 	4 13 12 0.36533
chimesFF: 	13 4 12 0.36533
chimesFF: 	12 13 4 0.36533
chimesFF: 	13 12 4 0.36533
chimesFF: 	4 12 14 -6.21568
chimesFF: 	12 4 14 -6.21568
chimesFF: 	4 14 12 -6.21568
chimesFF: 	14 4 12 -6.21568
chimesFF: 	12 14 4 -6.21568
chimesFF: 	14 12 4 -6.21568
chimesFF: 	4 13 13 1.21062
chimesFF: 	13 4 13 1.21062
chimesFF: 	13 13 4 1.21062
chimesFF: 	4 13 14 -0.60114
chimesFF: 	13 4 14 -0.60114
chimesFF: 	4 14 13 -0.60114
chimesFF: 	14 4 13 -0.60114
chimesFF: 	13 14 4 -0.60114
chimesFF: 	14 13 4 -0.60114
chimesFF: 	4 14 14 -9.11147
chimesFF: 	14 4 14 -9.11147
chimesFF: 	14 14 4 -9.11147
chimesFF: 	5 5 5 -35.04906
chimesFF: 	5 5 6 12.50953
chimesFF: 	5 6 5 12.50953
chimesFF: 	6 5 5 12.50953
chimesFF: 	5 5 7 -5.74935
chimesFF: 	5 7 5 -5.74935
chimesFF: 	7 5 5 -5.74935
chimesFF: 	5 5 8 7.13101
chimesFF: 	5 8 5 7.13101
chimesFF: 	8 5 5 7.13101
chimesFF: 	5 5 9 0.00000
chimesFF: 	5 9 5 0.00000
chimesFF: 	9 5 5 0.00000
chimesFF: 	5 5 10 0.00000
chimesFF: 	5 10 5 0.00000
chimesFF: 	10 5 5 0.00000
chimesFF: 	5 5 11 -8.39589
chimesFF: 	5 11 5 -8.39589
chimesFF: 	11 5 5 -8.39589
chimesFF: 	5 5 12 0.00000
chimesFF: 	5 12 5 0.00000
chimesFF: 	12 5 5 0.00000
chimesFF: 	5 5 13 -3.04844
chimesFF: 	5 13 5 -3.04844
chimesFF: 	13 5 5 -3.04844
chimesFF: 	5 5 14 -2.76770
chimesFF: 	5 14 5 -2.76770
chimesFF: 	14 5 5 -2.76770
chimesFF: 	5 6 6 11.12495
chimesFF: 	6 5 6 11.12495
chimesFF: 	6 6 5 11.12495
chimesFF: 	5 6 7 18.75172
chimesFF: 	6 5 7 18.75172
chimesFF: 	5 7 6 18.75172
chimesFF: 	7 5 6 18.75172
chimesFF: 	6 7 5 18.75172
chimesFF: 	7 6 5 18.75172
chimesFF: 	5 6 8 4.56843
chimesFF: 	6 5 8 4.56843
chimesFF: 	5 8 6 4.56843
chimesFF: 	8 5 6 4.56843
chimesFF: 	6 8 5 4.56843
chimesFF: 	8 6 5 4.56843
chimesFF: 	5 6 9 -2.16302
chimesFF: 	6 5 9 -2.16302
chimesFF: 	5 9 6 -2.16302
chimesFF: 	9 5 6 -2.16302
chimesFF: 	6 9 5 -2.16302
chimesFF: 	9 6 5 -2.16302
chimesFF: 	5 6 10 -8.37041
chimesFF: 	6 5 10 -8.37041
chimesFF: 	5 10 6 -8.37041
chimesFF: 	10 5 6 -8.37041
chimesFF: 	6 10 5 -8.37041
chimesFF: 	10 6 5 -8.37041
chimesFF: 	5 6 11 -7.03379
chimesFF: 	6 5 11 -7.03379
chimesFF: 	5 11 6 -7.03379
chimesFF: 	11 5 6 -7.03379
chimesFF: 	6 11 5 -7.03379
chimesFF: 	11 6 5 -7.03379
chimesFF: 	5 6 12 -5.13860
chimesFF: 	6 5 12 -5.13860
chimesFF: 	5 12 6 -5.13860
chimesFF: 	12 5 6 -5.13860
chimesFF: 	6 12 5 -5.13860
chimesFF: 	12 6 5 -5.13860
chimesFF: 	5 6 13 -4.10209
chimesFF: 	6 5 13 -4.10209
chimesFF: 	5 13 6 -4.10209
chimesFF: 	13 5 6 -4.10209
chimesFF: 	6 13 5 -4.10209
chimesFF: 	13 6 5 -4.10209
chimesFF: 	5 6 14 0.00000
chimesFF: 	6 5 14 0.00000
chimesFF: 	5 14 6 0.00000
chimesFF: 	14 5 6 0.00000
chimesFF: 	6 14 5 0.00000
chimesFF: 	14 6 5 0.00000
chimesFF: 	5 7 7 0.00000
chimesFF: 	7 5 7 0.00000
chimesFF: 	7 7 5 0.00000
chimesFF: 	5 7 8 -2.99488
chimesFF: 	7 5 8 -2.99488
chimesFF: 	5 8 7 -2.99488
chimesFF: 	8 5 7 -2.99488
chimesFF: 	7 8 5 -2.99488
chimesFF: 	8 7 5 -2.99488
chimesFF: 	5 7 9 2.50493
chimesFF: 	7 5 9 2.50493
chimesFF: 	5 9 7 2.50493
chimesFF: 	9 5 7 2.50493
chimesFF: 	7 9 5 2.50493
chimesFF: 	9 7 5 2.50493
chimesFF: 	5 7 10 0.14904
chimesFF: 	7 5 10 0.14904
chimesFF: 	5 10 7 0.14904
chimesFF: 	10 5 7 0.14904
chimesFF: 	7 10 5 0.14904
chimesFF: 	10 7 5 0.14904
chimesFF: 	5 7 11 0.00000
chimesFF: 	7 5 11 0.00000
chimesFF: 	5 11 7 0.00000
chimesFF: 	11 5 7 0.00000
chimesFF: 	7 11 5 0.00000
chimesFF: 	11 7 5 0.00000
chimesFF: 	5 7 12 -1.96029
chimesFF: 	7 5 12 -1.96029
chimesFF: 	5 12 7 -1.96029
chimesFF: 	12 5 7 -1.96029
chimesFF: 	7 12 5 -1.96029
chimesFF: 	12 7 5 -1.96029
chimesFF: 	5 7 13 0.00000
chimesFF: 	7 5 13 0.00000
chimesFF: 	5 13 7 0.00000
chimesFF: 	13 5 7 0.00000
chimesFF: 	7 13 5 0.00000
chimesFF: 	13 7 5 0.00000
chimesFF: 	5 7 14 0.04276
chimesFF: 	7 5 14 0.04276
chimesFF: 	5 14 7 0.04276
chimesFF: 	14 5 7 0.04276
chimesFF: 	7 14 5 0.04276
chimesFF: 	14 7 5 0.04276
chimesFF: 	5 8 8 -1.54569
chimesFF: 	8 5 8 -1.54569
chimesFF: 	8 8 5 -1.54569
chimesFF: 	5 8 9 0.00000
chimesFF: 	8 5 9 0.00000
chimesFF: 	5 9 8 0.00000
chimesFF: 	9 5 8 0.00000
chimesFF: 	8 9 5 0.00000
chimesFF: 	9 8 5 0.00000
chimesFF: 	5 8 10 0.00000
chimesFF: 	8 5 10 0.00000
chimesFF: 	5 10 8 0.00000
chimesFF: 	10 5 8 0.00000
chimesFF: 	8 10 5 0.00000
chimesFF: 	10 8 5 0.00000
chimesFF: 	5 8 11 4.86888
chimesFF: 	8 5 11 4.86888
chimesFF: 	5 11 8 4.86888
chimesFF: 	11 5 8 4.86888
chimesFF: 	8 11 5 4.86888
chimesFF: 	11 8 5 4.86888
chimesFF: 	5 8 12 0.00000
chimesFF: 	8 5 12 0.00000
chimesFF: 	5 12 8 0.00000
chimesFF: 	12 5 8 0.00000
chimesFF: 	8 12 5 0.00000
chimesFF: 	12 8 5 0.00000
chimesFF: 	5 8 13 -1.95645
chimesFF: 	8 5 13 -1.95645
chimesFF: 	5 13 8 -1.95645
chimesFF: 	13 5 8 -1.95645
chimesFF: 	8 13 5 -1.95645
chimesFF: 	13 8 5 -1.95645
chimesFF: 	5 8 14 1.55405
chimesFF: 	8 5 14 1.55405
chimesFF: 	5 14 8 1.55405
chimesFF: 	14 5 8 1.55405
chimesFF: 	8 14 5 1.55405
chimesFF: 	14 8 5 1.55405
chimesFF: 	5 9 9 -8.94410
chimesFF: 	9 5 9 -8.94410
chimesFF: 	9 9 5 -8.94410
chimesFF: 	5 9 10 1.23034
chimesFF: 	9 5 10 1.23034
chimesFF: 	5 10 9 1.23034
chimesFF: 	10 5 9 1.23034
chimesFF: 	9 10 5 1.23034
chimesFF: 	10 9 5 1.23034
chimesFF: 	5 9 11 -7.01128
chimesFF: 	9 5 11 -7.01128
chimesFF: 	5 11 9 -7.01128
chimesFF: 	11 5 9 -7.01128
chimesFF: 	9 11 5 -7.01128
chimesFF: 	11 9 5 -7.01128
chimesFF: 	5 9 12 4.13153
chimesFF: 	9 5 12 4.13153
chimesFF: 	5 12 9 4.13153
chimesFF: 	12 5 9 4.13153
chimesFF: 	9 12 5 4.13153
chimesFF: 	12 9 5 4.13153
chimesFF: 	5 9 13 -0.79408
chimesFF: 	9 5 13 -0.79408
chimesFF: 	5 13 9 -0.79408
chimesFF: 	13 5 9 -0.79408
chimesFF: 	9 13 5 -0.79408
chimesFF: 	13 9 5 -0.79408
chimesFF: 	5 9 14 0.00000
chimesFF: 	9 5 14 0.00000
chimesFF: 	5 14 9 0.00000
chimesFF: 	14 5 9 0.00000
chimesFF: 	9 14 5 0.00000
chimesFF: 	14 9 5 0.00000
chimesFF: 	5 10 10 -6.74812
chimesFF: 	10 5 10 -6.74812
chimesFF: 	10 10 5 -6.74812
chimesFF: 	5 10 11 -0.03659
chimesFF: 	10 5 11 -0.03659
chimesFF: 	5 11 10 -0.03659
chimesFF: 	11 5 10 -0.03659
chimesFF: 	10 11 5 -0.03659
chimesFF: 	11 10 5 -0.03659
chimesFF: 	5 10 12 -5.58483
chimesFF: 	10 5 12 -5.58483
chimesFF: 	5 12 10 -5.58483
chimesFF: 	12 5 10 -5.58483
chimesFF: 	10 12 5 -5.58483
chimesFF: 	12 10 5 -5.58483
chimesFF: 	5 10 13 -1.77431
chimesFF: 	10 5 13 -1.77431
chimesFF: 	5 13 10 -1.77431
chimesFF: 	13 5 10 -1.77431
chimesFF: 	10 13 5 -1.77431
chimesFF: 	13 10 5 -1.77431
chimesFF: 	5 10 14 0.55762
chimesFF: 	10 5 14 0.55762
chimesFF: 	5 14 10 0.55762
chimesFF: 	14 5 10 0.55762
chimesFF: 	10 14 5 0.55762
chimesFF: 	14 10 5 0.55762
chimesFF: 	5 11 11 -15.25181
chimesFF: 	11 5 11 -15.25181
chimesFF: 	11 11 5 -15.25181
chimesFF: 	5 11 12 1.54846
chimesFF: 	11 5 12 1.54846
chimesFF: 	5 12 11 1.54846
chimesFF: 	12 5 11 1.54846
chimesFF: 	11 12 5 1.54846
chimesFF: 	12 11 5 1.54846
chimesFF: 	5 11 13 -4.96998
chimesFF: 	11 5 13 -4.96998
chimesFF: 	5 13 11 -4.96998
chimesFF: 	13 5 11 -4.96998
chimesFF: 	11 13 5 -4.96998
chimesFF: 	13 11 5 -4.96998
chimesFF: 	5 11 14 -1.66322
chimesFF: 	11 5 14 -1.66322
chimesFF: 	5 14 11 -1.66322
chimesFF: 	14 5 11 -1.66322
chimesFF: 	11 14 5 -1.66322
chimesFF: 	14 11 5 -1.66322
chimesFF: 	5 12 12 0.00000
chimesFF: 	12 5 12 0.00000
chimesFF: 	12 12 5 0.00000
chimesFF: 	5 12 13 0.00000
chimesFF: 	12 5 13 0.00000
chimesFF: 	5 13 12 0.00000
chimesFF: 	13 5 12 0.00000
chimesFF: 	12 13 5 0.00000
chimesFF: 	13 12 5 0.00000
chimesFF: 	5 12 14 7.00042
chimesFF: 	12 5 14 7.00042
chimesFF: 	5 14 12 7.00042
chimesFF: 	14 5 12 7.00042
chimesFF: 	12 14 5 7.00042
chimesFF: 	14 12 5 7.00042
chimesFF: 	5 13 13 0.00000
chimesFF: 	13 5 13 0.00000
chimesFF: 	13 13 5 0.00000
chimesFF: 	5 13 14 1.08245
chimesFF: 	13 5 14 1.08245
chimesFF: 	5 14 13 1.08245
chimesFF: 	14 5 13 1.08245
chimesFF: 	13 14 5 1.08245
chimesFF: 	14 13 5 1.08245
chimesFF: 	5 14 14 8.80544
chimesFF: 	14 5 14 8.80544
chimesFF: 	14 14 5 8.80544
chimesFF: 	6 6 6 0.00000
chimesFF: 	6 6 7 -5.36610
chimesFF: 	6 7 6 -5.36610
chimesFF: 	7 6 6 -5.36610
chimesFF: 	6 6 8 -7.61236
chimesFF: 	6 8 6 -7.61236
chimesFF: 	8 6 6 -7.61236
chimesFF: 	6 6 9 4.57595
chimesFF: 	6 9 6 4.57595
chimesFF: 	9 6 6 4.57595
chimesFF: 	6 6 10 -1.78368
chimesFF: 	6 10 6 -1.78368
chimesFF: 	10 6 6 -1.78368
chimesFF: 	6 6 11 -3.60964
chimesFF: 	6 11 6 -3.60964
chimesFF: 	11 6 6 -3.60964
chimesFF: 	6 6 12 2.38618
chimesFF: 	6 12 6 2.38618
chimesFF: 	12 6 6 2.38618
chimesFF: 	6 6 13 -1.91948
chimesFF: 	6 13 6 -1.91948
chimesFF: 	13 6 6 -1.91948
chimesFF: 	6 6 14 7.28857
chimesFF: 	6 14 6 7.28857
chimesFF: 	14 6 6 7.28857
chimesFF: 	6 7 7 20.02002
chimesFF: 	7 6 7 20.02002
chimesFF: 	7 7 6 20.02002
chimesFF: 	6 7 8 12.54732
chimesFF: 	7 6 8 12.54732
chimesFF: 	6 8 7 12.54732
chimesFF: 	8 6 7 12.54732
chimesFF: 	7 8 6 12.54732
chimesFF: 	8 7 6 12.54732
chimesFF: 	6 7 9 0.00000
chimesFF: 	7 6 9 0.00000
chimesFF: 	6 9 7 0.00000
chimesFF: 	9 6 7 0.00000
chimesFF: 	7 9 6 0.00000
chimesFF: 	9 7 6 0.00000
chimesFF: 	6 7 10 -2.59710
chimesFF: 	7 6 10 -2.59710
chimesFF: 	6 10 7 -2.59710
chimesFF: 	10 6 7 -2.59710
chimesFF: 	7 10 6 -2.59710
chimesFF: 	10 7 6 -2.59710
chimesFF: 	6 7 11 0.53443
chimesFF: 	7 6 11 0.53443
chimesFF: 	6 11 7 0.53443
chimesFF: 	11 6 7 0.53443
chimesFF: 	7 11 6 0.53443
chimesFF: 	11 7 6 0.53443
chimesFF: 	6 7 12 3.12084
chimesFF: 	7 6 12 3.12084
chimesFF: 	6 12 7 3.12084
chimesFF: 	12 6 7 3.12084
chimesFF: 	7 12 6 3.12084
chimesFF: 	12 7 6 3.12084
chimesFF: 	6 7 13 2.10300
chimesFF: 	7 6 13 2.10300
chimesFF: 	6 13 7 2.10300
chimesFF: 	13 6 7 2.10300
chimesFF: 	7 13 6 2.10300
chimesFF: 	13 7 6 2.10300
chimesFF: 	6 7 14 -0.49495
chimesFF: 	7 6 14 -0.49495
chimesFF: 	6 14 7 -0.49495
chimesFF: 	14 6 7 -0.49495
chimesFF: 	7 14 6 -0.49495
chimesFF: 	14 7 6 -0.49495
chimesFF: 	6 8 8 0.00000
chimesFF: 	8 6 8 0.00000
chimesFF: 	8 8 6 0.00000
chimesFF: 	6 8 9 13.54863
chimesFF: 	8 6 9 13.54863
chimesFF: 	6 9 8 13.54863
chimesFF: 	9 6 8 13.54863
chimesFF: 	8 9 6 13.54863
chimesFF: 	9 8 6 13.54863
chimesFF: 	6 8 10 -0.26927
chimesFF: 	8 6 10 -0.26927
chimesFF: 	6 10 8 -0.26927
chimesFF: 	10 6 8 -0.26927
chimesFF: 	8 10 6 -0.26927
chimesFF: 	10 8 6 -0.26927
chimesFF: 	6 8 11 -3.05184
chimesFF: 	8 6 11 -3.05184
chimesFF: 	6 11 8 -3.05184
chimesFF: 	11 6 8 -3.05184
chimesFF: 	8 11 6 -3.05184
chimesFF: 	11 8 6 -3.05184
chimesFF: 	6 8 12 -8.02018
chimesFF: 	8 6 12 -8.02018
chimesFF: 	6 12 8 -8.02018
chimesFF: 	12 6 8 -8.02018
chimesFF: 	8 12 6 -8.02018
chimesFF: 	12 8 6 -8.02018
chimesFF: 	6 8 13 0.00000
chimesFF: 	8 6 13 0.00000
chimesFF: 	6 13 8 0.00000
chimesFF: 	13 6 8 0.00000
chimesFF: 	8 13 6 0.00000
chimesFF: 	13 8 6 0.00000
chimesFF: 	6 8 14 -0.42229
chimesFF: 	8 6 14 -0.42229
chimesFF: 	6 14 8 -0.42229
chimesFF: 	14 6 8 -0.42229
chimesFF: 	8 14 6 -0.42229
chimesFF: 	14 8 6 -0.42229
chimesFF: 	6 9 9 -20.53584
chimesFF: 	9 6 9 -20.53584
chimesFF: 	9 9 6 -20.53584
chimesFF: 	6 9 10 0.00000
chimesFF: 	9 6 10 0.00000
chimesFF: 	6 10 9 0.00000
chimesFF: 	10 6 9 0.00000
chimesFF: 	9 10 6 0.00000
chimesFF: 	10 9 6 0.00000
chimesFF: 	6 9 11 -11.78401
chimesFF: 	9 6 11 -11.78401
chimesFF: 	6 11 9 -11.78401
chimesFF: 	11 6 9 -11.78401
chimesFF: 	9 11 6 -11.78401
chimesFF: 	11 9 6 -11.78401
chimesFF: 	6 9 12 -0.35716
chimesFF: 	9 6 12 -0.35716
chimesFF: 	6 12 9 -0.35716
chimesFF: 	12 6 9 -0.35716
chimesFF: 	9 12 6 -0.35716
chimesFF: 	12 9 6 -0.35716
chimesFF: 	6 9 13 0.19755
chimesFF: 	9 6 13 0.19755
chimesFF: 	6 13 9 0.19755
chimesFF: 	13 6 9 0.19755
chimesFF: 	9 13 6 0.19755
chimesFF: 	13 9 6 0.19755
chimesFF: 	6 9 14 -0.06207
chimesFF: 	9 6 14 -0.06207
chimesFF: 	6 14 9 -0.06207
chimesFF: 	14 6 9 -0.06207
chimesFF: 	9 14 6 -0.06207
chimesFF: 	14 9 6 -0.06207
chimesFF: 	6 10 10 21.21700
chimesFF: 	10 6 10 21.21700
chimesFF: 	10 10 6 21.21700
chimesFF: 	6 10 11 -0.32272
chimesFF: 	10 6 11 -0.32272
chimesFF: 	6 11 10 -0.32272
chimesFF: 	11 6 10 -0.32272
chimesFF: 	10 11 6 -0.32272
chimesFF: 	11 10 6 -0.32272
chimesFF: 	6 10 12 8.21506
chimesFF: 	10 6 12 8.21506
chimesFF: 	6 12 10 8.21506
chimesFF: 	12 6 10 8.21506
chimesFF: 	10 12 6 8.21506
chimesFF: 	12 10 6 8.21506
chimesFF: 	6 10 13 0.60359
chimesFF: 	10 6 13 0.60359
chimesFF: 	6 13 10 0.60359
chimesFF: 	13 6 10 0.60359
chimesFF: 	10 13 6 0.60359
chimesFF: 	13 10 6 0.60359
chimesFF: 	6 10 14 1.04748
chimesFF: 	10 6 14 1.04748
chimesFF: 	6 14 10 1.04748
chimesFF: 	14 6 10 1.04748
chimesFF: 	10 14 6 1.04748
chimesFF: 	14 10 6 1.04748
chimesFF: 	6 11 11 0.00000
chimesFF: 	11 6 11 0.00000
chimesFF: 	11 11 6 0.00000
chimesFF: 	6 11 12 1.00675
chimesFF: 	11 6 12 1.00675
chimesFF: 	6 12 11 1.00675
chimesFF: 	12 6 11 1.00675
chimesFF: 	11 12 6 1.00675
chimesFF: 	12 11 6 1.00675
chimesFF: 	6 11 13 3.05060
chimesFF: 	11 6 13 3.05060
chimesFF: 	6 13 11 3.05060
chimesFF: 	13 6 11 3.05060
chimesFF: 	11 13 6 3.05060
chimesFF: 	13 11 6 3.05060
chimesFF: 	6 11 14 1.49910
chimesFF: 	11 6 14 1.49910
chimesFF: 	6 14 11 1.49910
chimesFF: 	14 6 11 1.49910
chimesFF: 	11 14 6 1.49910
chimesFF: 	14 11 6 1.49910
chimesFF: 	6 12 12 0.00000
chimesFF: 	12 6 12 0.00000
chimesFF: 	12 12 6 0.00000
chimesFF: 	6 12 13 -0.42294
chimesFF: 	12 6 13 -0.42294
chimesFF: 	6 13 12 -0.42294
chimesFF: 	13 6 12 -0.42294
chimesFF: 	12 13 6 -0.42294
chimesFF: 	13 12 6 -0.42294
chimesFF: 	6 12 14 -6.13397
chimesFF: 	12 6 14 -6.13397
chimesFF: 	6 14 12 -6.13397
chimesFF: 	14 6 12 -6.13397
chimesFF: 	12 14 6 -6.13397
chimesFF: 	14 12 6 -6.13397
chimesFF: 	6 13 13 -0.46498
chimesFF: 	13 6 13 -0.46498
chimesFF: 	13 13 6 -0.46498
chimesFF: 	6 13 14 -1.34322
chimesFF: 	13 6 14 -1.34322
chimesFF: 	6 14 13 -1.34322
chimesFF: 	14 6 13 -1.34322
chimesFF: 	13 14 6 -1.34322
chimesFF: 	14 13 6 -1.34322
chimesFF: 	6 14 14 -7.70199
chimesFF: 	14 6 14 -7.70199
chimesFF: 	14 14 6 -7.70199
chimesFF: 	7 7 7 -5.43117
chimesFF: 	7 7 8 -7.15946
chimesFF: 	7 8 7 -7.15946
chimesFF: 	8 7 7 -7.15946
chimesFF: 	7 7 9 -1.66559
chimesFF: 	7 9 7 -1.66559
chimesFF: 	9 7 7 -1.66559
chimesFF: 	7 7 10 -7.06011
chimesFF: 	7 10 7 -7.06011
chimesFF: 	10 7 7 -7.06011
chimesFF: 	7 7 11 2.32508
chimesFF: 	7 11 7 2.32508
chimesFF: 	11 7 7 2.32508
chimesFF: 	7 7 12 -6.50577
chimesFF: 	7 12 7 -6.50577
chimesFF: 	12 7 7 -6.50577
chimesFF: 	7 7 13 3.09815
chimesFF: 	7 13 7 3.09815
chimesFF: 	13 7 7 3.09815
chimesFF: 	7 7 14 1.59536
chimesFF: 	7 14 7 1.59536
chimesFF: 	14 7 7 1.59536
chimesFF: 	7 8 8 20.98600
chimesFF: 	8 7 8 20.98600
chimesFF: 	8 8 7 20.98600
chimesFF: 	7 8 9 2.02586
chimesFF: 	8 7 9 2.02586
chimesFF: 	7 9 8 2.02586
chimesFF: 	9 7 8 2.02586
chimesFF: 	8 9 7 2.02586
chimesFF: 	9 8 7 2.02586
chimesFF: 	7 8 10 10.91558
chimesFF: 	8 7 10 10.91558
chimesFF: 	7 10 8 10.91558
chimesFF: 	10 7 8 10.91558
chimesFF: 	8 10 7 10.91558
chimesFF: 	10 8 7 10.91558
chimesFF: 	7 8 11 10.47873
chimesFF: 	8 7 11 10.47873
chimesFF: 	7 11 8 10.47873
chimesFF: 	11 7 8 10.47873
chimesFF: 	8 11 7 10.47873
chimesFF: 	11 8 7 10.47873
chimesFF: 	7 8 12 5.48476
chimesFF: 	8 7 12 5.48476
chimesFF: 	7 12 8 5.48476
chimesFF: 	12 7 8 5.48476
chimesFF: 	8 12 7 5.48476
chimesFF: 	12 8 7 5.48476
chimesFF: 	7 8 13 2.72683
chimesFF: 	8 7 13 2.72683
chimesFF: 	7 13 8 2.72683
chimesFF: 	13 7 8 2.72683
chimesFF: 	8 13 7 2.72683
chimesFF: 	13 8 7 2.72683
chimesFF: 	7 8 14 0.21227
chimesFF: 	8 7 14 0.21227
chimesFF: 	7 14 8 0.21227
chimesFF: 	14 7 8 0.21227
chimesFF: 	8 14 7 0.21227
chimesFF: 	14 8 7 0.21227
chimesFF: 	7 9 9 0.00000
chimesFF: 	9 7 9 0.00000
chimesFF: 	9 9 7 0.00000
chimesFF: 	7 9 10 0.00000
chimesFF: 	9 7 10 0.00000
chimesFF: 	7 10 9 0.00000
chimesFF: 	10 7 9 0.00000
chimesFF: 	9 10 7 0.00000
chimesFF: 	10 9 7 0.00000
chimesFF: 	7 9 11 0.00000
chimesFF: 	9 7 11 0.00000
chimesFF: 	7 11 9 0.00000
chimesFF: 	11 7 9 0.00000
chimesFF: 	9 11 7 0.00000
chimesFF: 	11 9 7 0.00000
chimesFF: 	7 9 12 -0.72706
chimesFF: 	9 7 12 -0.72706
chimesFF: 	7 12 9 -0.72706
chimesFF: 	12 7 9 -0.72706
chimesFF: 	9 12 7 -0.72706
chimesFF: 	12 9 7 -0.72706
chimesFF: 	7 9 13 2.12267
chimesFF: 	9 7 13 2.12267
chimesFF: 	7 13 9 2.12267
chimesFF: 	13 7 9 2.12267
chimesFF: 	9 13 7 2.12267
chimesFF: 	13 9 7 2.12267
chimesFF: 	7 9 14 0.93528
chimesFF: 	9 7 14 0.93528
chimesFF: 	7 14 9 0.93528
chimesFF: 	14 7 9 0.93528
chimesFF: 	9 14 7 0.93528
chimesFF: 	14 9 7 0.93528
chimesFF: 	7 10 10 3.51539
chimesFF: 	10 7 10 3.51539
chimesFF: 	10 10 7 3.51539
chimesFF: 	7 10 11 1.60423
chimesFF: 	10 7 11 1.60423
chimesFF: 	7 11 10 1.60423
chimesFF: 	11 7 10 1.60423
chimesFF: 	10 11 7 1.60423
chimesFF: 	11 10 7 1.60423
chimesFF: 	7 10 12 -0.89329
chimesFF: 	10 7 12 -0.89329
chimesFF: 	7 12 10 -0.89329
chimesFF: 	12 7 10 -0.89329
chimesFF: 	10 12 7 -0.89329
chimesFF: 	12 10 7 -0.89329
chimesFF: 	7 10 13 -0.23409
chimesFF: 	10 7 13 -0.23409
chimesFF: 	7 13 10 -0.23409
chimesFF: 	13 7 10 -0.23409
chimesFF: 	10 13 7 -0.23409
chimesFF: 	13 10 7 -0.23409
chimesFF: 	7 10 14 -0.17651
chimesFF: 	10 7 14 -0.17651
chimesFF: 	7 14 10 -0.17651
chimesFF: 	14 7 10 -0.17651
chimesFF: 	10 14 7 -0.17651
chimesFF: 	14 10 7 -0.17651
chimesFF: 	7 11 11 -10.91583
chimesFF: 	11 7 11 -10.91583
chimesFF: 	11 11 7 -10.91583
chimesFF: 	7 11 12 0.00000
chimesFF: 	11 7 12 0.00000
chimesFF: 	7 12 11 0.00000
chimesFF: 	12 7 11 0.00000
chimesFF: 	11 12 7 0.00000
chimesFF: 	12 11 7 0.00000
chimesFF: 	7 11 13 -2.67742
chimesFF: 	11 7 13 -2.67742
chimesFF: 	7 13 11 -2.67742
chimesFF: 	13 7 11 -2.67742
chimesFF: 	11 13 7 -2.67742
chimesFF: 	13 11 7 -2.67742
chimesFF: 	7 11 14 0.16634
chimesFF: 	11 7 14 0.16634
chimesFF: 	7 14 11 0.16634
chimesFF: 	14 7 11 0.16634
chimesFF: 	11 14 7 0.16634
chimesFF: 	14 11 7 0.16634
chimesFF: 	7 12 12 2.32816
chimesFF: 	12 7 12 2.32816
chimesFF: 	12 12 7 2.32816
chimesFF: 	7 12 13 1.23946
chimesFF: 	12 7 13 1.23946
chimesFF: 	7 13 12 1.23946
chimesFF: 	13 7 12 1.23946
chimesFF: 	12 13 7 1.23946
chimesFF: 	13 12 7 1.23946
chimesFF: 	7 12 14 5.62045
chimesFF: 	12 7 14 5.62045
chimesFF: 	7 14 12 5.62045
chimesFF: 	14 7 12 5.62045
chimesFF: 	12 14 7 5.62045
chimesFF: 	14 12 7 5.62045
chimesFF: 	7 13 13 1.60411
chimesFF: 	13 7 13 1.60411
chimesFF: 	13 13 7 1.60411
chimesFF: 	7 13 14 2.01468
chimesFF: 	13 7 14 2.01468
chimesFF: 	7 14 13 2.01468
chimesFF: 	14 7 13 2.01468
chimesFF: 	13 14 7 2.01468
chimesFF: 	14 13 7 2.01468
chimesFF: 	7 14 14 6.39602
chimesFF: 	14 7 14 6.39602
chimesFF: 	14 14 7 6.39602
chimesFF: 	8 8 8 0.00000
chimesFF: 	8 8 9 13.01435
chimesFF: 	8 9 8 13.01435
chimesFF: 	9 8 8 13.01435
chimesFF: 	8 8 10 -8.73500
chimesFF: 	8 10 8 -8.73500
chimesFF: 	10 8 8 -8.73500
chimesFF: 	8 8 11 -3.95175
chimesFF: 	8 11 8 -3.95175
chimesFF: 	11 8 8 -3.95175
chimesFF: 	8 8 12 -16.91723
chimesFF: 	8 12 8 -16.91723
chimesFF: 	12 8 8 -16.91723
chimesFF: 	8 8 13 0.09361
chimesFF: 	8 13 8 0.09361
chimesFF: 	13 8 8 0.09361
chimesFF: 	8 8 14 -5.17897
chimesFF: 	8 14 8 -5.17897
chimesFF: 	14 8 8 -5.17897
chimesFF: 	8 9 9 -4.69970
chimesFF: 	9 8 9 -4.69970
chimesFF: 	9 9 8 -4.69970
chimesFF: 	8 9 10 1.48624
chimesFF: 	9 8 10 1.48624
chimesFF: 	8 10 9 1.48624
chimesFF: 	10 8 9 1.48624
chimesFF: 	9 10 8 1.48624
chimesFF: 	10 9 8 1.48624
chimesFF: 	8 9 11 0.83210
chimesFF: 	9 8 11 0.83210
chimesFF: 	8 11 9 0.83210
chimesFF: 	11 8 9 0.83210
chimesFF: 	9 11 8 0.83210
chimesFF: 	11 9 8 0.83210
chimesFF: 	8 9 12 -0.18046
chimesFF: 	9 8 12 -0.18046
chimesFF: 	8 12 9 -0.18046
chimesFF: 	12 8 9 -0.18046
chimesFF: 	9 12 8 -0.18046
chimesFF: 	12 9 8 -0.18046
chimesFF: 	8 9 13 1.47821
chimesFF: 	9 8 13 1.47821
chimesFF: 	8 13 9 1.47821
chimesFF: 	13 8 9 1.47821
chimesFF: 	9 13 8 1.47821
chimesFF: 	13 9 8 1.47821
chimesFF: 	8 9 14 -0.05008
chimesFF: 	9 8 14 -0.05008
chimesFF: 	8 14 9 -0.05008
chimesFF: 	14 8 9 -0.05008
chimesFF: 	9 14 8 -0.05008
chimesFF: 	14 9 8 -0.05008
chimesFF: 	8 10 10 3.94595
chimesFF: 	10 8 10 3.94595
chimesFF: 	10 10 8 3.94595
chimesFF: 	8 10 11 -1.34320
chimesFF: 	10 8 11 -1.34320
chimesFF: 	8 11 10 -1.34320
chimesFF: 	11 8 10 -1.34320
chimesFF: 	10 11 8 -1.34320
chimesFF: 	11 10 8 -1.34320
chimesFF: 	8 10 12 -1.14037
chimesFF: 	10 8 12 -1.14037
chimesFF: 	8 12 10 -1.14037
chimesFF: 	12 8 10 -1.14037
chimesFF: 	10 12 8 -1.14037
chimesFF: 	12 10 8 -1.14037
chimesFF: 	8 10 13 0.00000
chimesFF: 	10 8 13 0.00000
chimesFF: 	8 13 10 0.00000
chimesFF: 	13 8 10 0.00000
chimesFF: 	10 13 8 0.00000
chimesFF: 	13 10 8 0.00000
chimesFF: 	8 10 14 -1.91783
chimesFF: 	10 8 14 -1.91783
chimesFF: 	8 14 10 -1.91783
chimesFF: 	14 8 10 -1.91783
chimesFF: 	10 14 8 -1.91783
chimesFF: 	14 10 8 -1.91783
chimesFF: 	8 11 11 5.05247
chimesFF: 	11 8 11 5.05247
chimesFF: 	11 11 8 5.05247
chimesFF: 	8 11 12 0.00000
chimesFF: 	11 8 12 0.00000
chimesFF: 	8 12 11 0.00000
chimesFF: 	12 8 11 0.00000
chimesFF: 	11 12 8 0.00000
chimesFF: 	12 11 8 0.00000
chimesFF: 	8 11 13 2.26887
chimesFF: 	11 8 13 2.26887
chimesFF: 	8 13 11 2.26887
chimesFF: 	13 8 11 2.26887
chimesFF: 	11 13 8 2.26887
chimesFF: 	13 11 8 2.26887
chimesFF: 	8 11 14 0.50284
chimesFF: 	11 8 14 0.50284
chimesFF: 	8 14 11 0.50284
chimesFF: 	14 8 11 0.50284
chimesFF: 	11 14 8 0.50284
chimesFF: 	14 11 8 0.50284
chimesFF: 	8 12 12 -3.80385
chimesFF: 	12 8 12 -3.80385
chimesFF: 	12 12 8 -3.80385
chimesFF: 	8 12 13 -1.58292
chimesFF: 	12 8 13 -1.58292
chimesFF: 	8 13 12 -1.58292
chimesFF: 	13 8 12 -1.58292
chimesFF: 	12 13 8 -1.58292
chimesFF: 	13 12 8 -1.58292
chimesFF: 	8 12 14 -5.77331
chimesFF: 	12 8 14 -5.77331
chimesFF: 	8 14 12 -5.77331
chimesFF: 	14 8 12 -5.77331
chimesFF: 	12 14 8 -5.77331
chimesFF: 	14 12 8 -5.77331
chimesFF: 	8 13 13 -1.27480
chimesFF: 	13 8 13 -1.27480
chimesFF: 	13 13 8 -1.27480
chimesFF: 	8 13 14 -1.59428
chimesFF: 	13 8 14 -1.59428
chimesFF: 	8 14 13 -1.59428
chimesFF: 	14 8 13 -1.59428
chimesFF: 	13 14 8 -1.59428
chimesFF: 	14 13 8 -1.59428
chimesFF: 	8 14 14 -5.63957
chimesFF: 	14 8 14 -5.63957
chimesFF: 	14 14 8 -5.63957
chimesFF: 	9 9 9 9.07509
chimesFF: 	9 9 10 -2.61320
chimesFF: 	9 10 9 -2.61320
chimesFF: 	10 9 9 -2.61320
chimesFF: 	9 9 11 2.52459
chimesFF: 	9 11 9 2.52459
chimesFF: 	11 9 9 2.52459
chimesFF: 	9 9 12 -0.88886
chimesFF: 	9 12 9 -0.88886
chimesFF: 	12 9 9 -0.88886
chimesFF: 	9 9 13 2.31238
chimesFF: 	9 13 9 2.31238
chimesFF: 	13 9 9 2.31238
chimesFF: 	9 9 14 0.29872
chimesFF: 	9 14 9 0.29872
chimesFF: 	14 9 9 0.29872
chimesFF: 	9 10 10 -2.20892
chimesFF: 	10 9 10 -2.20892
chimesFF: 	10 10 9 -2.20892
chimesFF: 	9 10 11 -2.16586
chimesFF: 	10 9 11 -2.16586
chimesFF: 	9 11 10 -2.16586
chimesFF: 	11 9 10 -2.16586
chimesFF: 	10 11 9 -2.16586
chimesFF: 	11 10 9 -2.16586
chimesFF: 	9 10 12 -1.76780
chimesFF: 	10 9 12 -1.76780
chimesFF: 	9 12 10 -1.76780
chimesFF: 	12 9 10 -1.76780
chimesFF: 	10 12 9 -1.76780
chimesFF: 	12 10 9 -1.76780
chimesFF: 	9 10 13 -0.51122
chimesFF: 	10 9 13 -0.51122
chimesFF: 	9 13 10 -0.51122
chimesFF: 	13 9 10 -0.51122
chimesFF: 	10 13 9 -0.51122
chimesFF: 	13 10 9 -0.51122
chimesFF: 	9 10 14 0.15828
chimesFF: 	10 9 14 0.15828
chimesFF: 	9 14 10 0.15828
chimesFF: 	14 9 10 0.15828
chimesFF: 	10 14 9 0.15828
chimesFF: 	14 10 9 0.15828
chimesFF: 	9 11 11 -6.55765
chimesFF: 	11 9 11 -6.55765
chimesFF: 	11 11 9 -6.55765
chimesFF: 	9 11 12 0.36632
chimesFF: 	11 9 12 0.36632
chimesFF: 	9 12 11 0.36632
chimesFF: 	12 9 11 0.36632
chimesFF: 	11 12 9 0.36632
chimesFF: 	12 11 9 0.36632
chimesFF: 	9 11 13 -0.52341
chimesFF: 	11 9 13 -0.52341
chimesFF: 	9 13 11 -0.52341
chimesFF: 	13 9 11 -0.52341
chimesFF: 	11 13 9 -0.52341
chimesFF: 	13 11 9 -0.52341
chimesFF: 	9 11 14 0.80484
chimesFF: 	11 9 14 0.80484
chimesFF: 	9 14 11 0.80484
chimesFF: 	14 9 11 0.80484
chimesFF: 	11 14 9 0.80484
chimesFF: 	14 11 9 0.80484
chimesFF: 	9 12 12 2.11689
chimesFF: 	12 9 12 2.11689
chimesFF: 	12 12 9 2.11689
chimesFF: 	9 12 13 1.90414
chimesFF: 	12 9 13 1.90414
chimesFF: 	9 13 12 1.90414
chimesFF: 	13 9 12 1.90414
chimesFF: 	12 13 9 1.90414
chimesFF: 	13 12 9 1.90414
chimesFF: 	9 12 14 3.88616
chimesFF: 	12 9 14 3.88616
chimesFF: 	9 14 12 3.88616
chimesFF: 	14 9 12 3.88616
chimesFF: 	12 14 9 3.88616
chimesFF: 	14 12 9 3.88616
chimesFF: 	9 13 13 2.44122
chimesFF: 	13 9 13 2.44122
chimesFF: 	13 13 9 2.44122
chimesFF: 	9 13 14 1.86064
chimesFF: 	13 9 14 1.86064
chimesFF: 	9 14 13 1.86064
chimesFF: 	14 9 13 1.86064
chimesFF: 	13 14 9 1.86064
chimesFF: 	14 13 9 1.86064
chimesFF: 	9 14 14 3.86992
chimesFF: 	14 9 14 3.86992
chimesFF: 	14 14 9 3.86992
chimesFF: 	10 10 10 14.56443
chimesFF: 	10 10 11 0.00000
chimesFF: 	10 11 10 0.00000
chimesFF: 	11 10 10 0.00000
chimesFF: 	10 10 12 6.81668
chimesFF: 	10 12 10 6.81668
chimesFF: 	12 10 10 6.81668
chimesFF: 	10 10 13 -0.83369
chimesFF: 	10 13 10 -0.83369
chimesFF: 	13 10 10 -0.83369
chimesFF: 	10 10 14 0.04921
chimesFF: 	10 14 10 0.04921
chimesFF: 	14 10 10 0.04921
chimesFF: 	10 11 11 0.05237
chimesFF: 	11 10 11 0.05237
chimesFF: 	11 11 10 0.05237
chimesFF: 	10 11 12 -0.21375
chimesFF: 	11 10 12 -0.21375
chimesFF: 	10 12 11 -0.21375
chimesFF: 	12 10 11 -0.21375
chimesFF: 	11 12 10 -0.21375
chimesFF: 	12 11 10 -0.21375
chimesFF: 	10 11 13 -0.06061
chimesFF: 	11 10 13 -0.06061
chimesFF: 	10 13 11 -0.06061
chimesFF: 	13 10 11 -0.06061
chimesFF: 	11 13 10 -0.06061
chimesFF: 	13 11 10 -0.06061
chimesFF: 	10 11 14 0.35282
chimesFF: 	11 10 14 0.35282
chimesFF: 	10 14 11 0.35282
chimesFF: 	14 10 11 0.35282
chimesFF: 	11 14 10 0.35282
chimesFF: 	14 11 10 0.35282
chimesFF: 	10 12 12 0.73825
chimesFF: 	12 10 12 0.73825
chimesFF: 	12 12 10 0.73825
chimesFF: 	10 12 13 -2.11478
chimesFF: 	12 10 13 -2.11478
chimesFF: 	10 13 12 -2.11478
chimesFF: 	13 10 12 -2.11478
chimesFF: 	12 13 10 -2.11478
chimesFF: 	13 12 10 -2.11478
chimesFF: 	10 12 14 -2.88473
chimesFF: 	12 10 14 -2.88473
chimesFF: 	10 14 12 -2.88473
chimesFF: 	14 10 12 -2.88473
chimesFF: 	12 14 10 -2.88473
chimesFF: 	14 12 10 -2.88473
chimesFF: 	10 13 13 -1.57950
chimesFF: 	13 10 13 -1.57950
chimesFF: 	13 13 10 -1.57950
chimesFF: 	10 13 14 -1.24305
chimesFF: 	13 10 14 -1.24305
chimesFF: 	10 14 13 -1.24305
chimesFF: 	14 10 13 -1.24305
chimesFF: 	13 14 10 -1.24305
chimesFF: 	14 13 10 -1.24305
chimesFF: 	10 14 14 -2.94034
chimesFF: 	14 10 14 -2.94034
chimesFF: 	14 14 10 -2.94034
chimesFF: 	11 11 11 -7.71374
chimesFF: 	11 11 12 2.29999
chimesFF: 	11 12 11 2.29999
chimesFF: 	12 11 11 2.29999
chimesFF: 	11 11 13 0.00000
chimesFF: 	11 13 11 0.00000
chimesFF: 	13 11 11 0.00000
chimesFF: 	11 11 14 1.49169
chimesFF: 	11 14 11 1.49169
chimesFF: 	14 11 11 1.49169
chimesFF: 	11 12 12 0.95832
chimesFF: 	12 11 12 0.95832
chimesFF: 	12 12 11 0.95832
chimesFF: 	11 12 13 1.69926
chimesFF: 	12 11 13 1.69926
chimesFF: 	11 13 12 1.69926
chimesFF: 	13 11 12 1.69926
chimesFF: 	12 13 11 1.69926
chimesFF: 	13 12 11 1.69926
chimesFF: 	11 12 14 1.73570
chimesFF: 	12 11 14 1.73570
chimesFF: 	11 14 12 1.73570
chimesFF: 	14 11 12 1.73570
chimesFF: 	12 14 11 1.73570
chimesFF: 	14 12 11 1.73570
chimesFF: 	11 13 13 2.17518
chimesFF: 	13 11 13 2.17518
chimesFF: 	13 13 11 2.17518
chimesFF: 	11 13 14 1.23531
chimesFF: 	13 11 14 1.23531
chimesFF: 	11 14 13 1.23531
chimesFF: 	14 11 13 1.23531
chimesFF: 	13 14 11 1.23531
chimesFF: 	14 13 11 1.23531
chimesFF: 	11 14 14 1.65576
chimesFF: 	14 11 14 1.65576
chimesFF: 	14 14 11 1.65576
chimesFF: 	12 12 12 -2.32338
chimesFF: 	12 12 13 -1.65243
chimesFF: 	12 13 12 -1.65243
chimesFF: 	13 12 12 -1.65243
chimesFF: 	12 12 14 -2.83940
chimesFF: 	12 14 12 -2.83940
chimesFF: 	14 12 12 -2.83940
chimesFF: 	12 13 13 0.03029
chimesFF: 	13 12 13 0.03029
chimesFF: 	13 13 12 0.03029
chimesFF: 	12 13 14 -0.34341
chimesFF: 	13 12 14 -0.34341
chimesFF: 	12 14 13 -0.34341
chimesFF: 	14 12 13 -0.34341
chimesFF: 	13 14 12 -0.34341
chimesFF: 	14 13 12 -0.34341
chimesFF: 	12 14 14 -1.82790
chimesFF: 	14 12 14 -1.82790
chimesFF: 	14 14 12 -1.82790
chimesFF: 	13 13 13 1.85300
chimesFF: 	13 13 14 0.31439
chimesFF: 	13 14 13 0.31439
chimesFF: 	14 13 13 0.31439
chimesFF: 	13 14 14 0.20105
chimesFF: 	14 13 14 0.20105
chimesFF: 	14 14 13 0.20105
chimesFF: 	14 14 14 -0.87485
chimesFF: Built the following 3-body pair "slow" map:
chimesFF: 	0 SiSiSiSiSiSi
chimesFF: Built the following 3-body pair "fast" map:
chimesFF: 	0 0
chimesFF: Set the following special 3-body outer cutoffs: 
chimesFF: 	0 6.00000 6.00000 6.00000
chimesFF: 	Setting 3-body max cutoff to: 6.00000

CITE-CITE-CITE-CITE-CITE-CITE-CITE-CITE-CITE-CITE-CITE-CITE-CITE

Your simulation uses code contributions which should be cited:
- Type Label Framework: https://doi.org/10.1021/acs.jpcb.3c08419
- Pair style momb: doi:10.1021/jp412098n
The log file lists these citations in BibTeX format.

CITE-CITE-CITE-CITE-CITE-CITE-CITE-CITE-CITE-CITE-CITE-CITE-CITE

Generated 0 of 0 mixed pair_coeff terms from geometric mixing rule
Neighbor list info ...
  update: every = 1 steps, delay = 0 steps, check = yes
  max neighbors/atom: 2000, page size: 100000
  master list distance cutoff = 14
  ghost atom cutoff = 14
  binsize = 7, bins = 2 2 2
  2 neighbor lists, perpetual/occasional/extra = 2 0 0
  (1) pair chimesFF, perpetual
      attributes: full, newton on, ghost, cut 8
      pair build: full/bin/ghost
      stencil: full/ghost/bin/3d
      bin: standard
  (2) pair momb, perpetual
      attributes: half, newton on
      pair build: half/bin/atomonly/newton/tri
      stencil: half/bin/3d/tri
      bin: standard
Setting up Verlet run ...
  Unit style    : real
  Current step  : 0
  Time step     : 0.5
Updating chimesFF neighbor lists...
	Rank 0 3-body list size: 62262
	Rank 0 4-body list size: 0
	...update complete
Per MPI rank memory allocation (min/avg/max) = 9.078 | 9.084 | 9.086 Mbytes
   Step           Lx             Ly             Lz            Pxx            Pyy            Pzz           PotEng         KinEng         TotEng       Econserve        Volume         Press           Temp     
         0   13.4           13.4           13.4           1253153        1268301.2      1262466.7     -39109.314      5126.9933     -33982.321     -33982.321      2406.104       1261307        8000         
        10   13.4           13.4           13.4           1478481.8      1469894.6      1467163.2     -37431.877      3455.8978     -33975.979     -33978.39       2406.104       1471846.5      5392.4749    
        20   13.4           13.4           13.4           1500626.7      1484205.8      1470491.2     -36746.998      2789.3326     -33957.665     -33978.432      2406.104       1485107.9      4352.3873    
Loop time of 20.5056 on 36 procs for 20 steps with 216 atoms

Performance: 0.042 ns/day, 569.600 hours/ns, 0.975 timesteps/s, 210.674 atom-step/s
99.7% CPU use with 36 MPI tasks x no OpenMP threads

MPI task timing breakdown:
Section |  min time  |  avg time  |  max time  |%varavg| %total
---------------------------------------------------------------
Pair    | 0.063424   | 5.959      | 20.501     | 213.8 | 29.06
Neigh   | 0          | 0          | 0          |   0.0 |  0.00
Comm    | 0.0036411  | 14.546     | 20.441     | 136.8 | 70.94
Output  | 0.00030474 | 0.00030816 | 0.00032726 |   0.0 |  0.00
Modify  | 0.00023929 | 0.00045779 | 0.00061401 |   0.0 |  0.00
Other   |            | 0.0001848  |            |       |  0.00

Nlocal:              6 ave          13 max           3 min
Histogram: 6 4 7 6 5 4 0 2 1 1
Nghost:           2941 ave        2944 max        2934 min
Histogram: 1 0 1 2 0 4 5 6 7 10
Neighs:           3186 ave        6859 max        1588 min
Histogram: 7 4 7 5 7 2 1 2 0 1
FullNghs:         1140 ave        2470 max         570 min
Histogram: 6 4 7 6 5 4 0 2 1 1

Total # of neighbors = 114696
Ave neighs/atom = 531
Neighbor list builds = 0
Dangerous builds = 0
Total wall time: 0:00:21
