# Made by hand

624 atoms
3 atom types

0.0 19.175 xlo xhi
0.0 100 ylo yhi
0.0 12.953 zlo zhi

Masses

1 1.00784
2 15.999
3 28.0855

Atoms  # atomic

1	1	13.54532226	19.67909167	5.93567371
2	1	11.48909354	-0.2676471	5.45223034
3	1	13.33582023	-0.18787545	9.85745028
4	1	13.71546248	20.97067905	11.25647972
5	1	14.9234292	-0.06132105	4.78021624
6	1	15.61674331	19.38750252	8.03140862
7	1	19.53710726	0.01923617	10.9698727
8	1	16.88176869	20.23094783	11.57398933
9	1	1.37784957	20.52846503	0.08921244
10	1	3.18995133	-0.02290809	1.03197274
11	1	3.41718232	0.04453325	9.49746755
12	1	2.07237572	20.0092132	8.12300481
13	1	6.24436266	-0.12901282	1.06379891
14	1	6.80879	20.71039992	-0.1472504
15	1	8.24471548	-0.67483658	9.17658351
16	1	7.70558404	19.97311874	8.74870524
17	2	1.30647868	15.43024966	3.17240542
18	2	1.21166503	4.33306951	2.90836373
19	2	0.39177657	11.27919901	3.27546789
20	2	0.96054363	7.73961712	2.40221144
21	2	1.41094846	15.83423067	11.23971876
22	2	2.00932644	4.11119071	10.66946393
23	2	2.01249893	10.47795112	1.38886562
24	2	1.50133058	17.7791072	1.22454693
25	2	1.51479286	2.83615243	0.53668084
26	2	1.72860532	1.33047136	11.13351054
27	2	3.13803226	17.91822484	11.68483146
28	2	2.76975289	15.5159416	0.59280407
29	2	1.83013653	5.71325946	0.56504916
30	2	1.93774396	13.28614465	12.08397456
31	2	2.45961714	6.94538367	10.96424234
32	2	1.87148317	13.19968133	1.82383919
33	2	3.11912036	8.10441491	0.55671449
34	2	10.71332188	15.3210485	3.8807462
35	2	10.53196329	4.0190128	3.52523827
36	2	9.86560753	12.31881147	5.54518478
37	2	10.53562826	7.43623412	3.80471958
38	2	11.99304833	15.73461551	9.27711914
39	2	11.51042947	3.99121912	8.41767203
40	2	10.90810744	9.98121539	4.87038154
41	2	11.11902308	16.95883602	6.1905955
42	2	11.06214553	2.66887954	6.00069712
43	2	11.8233532	1.29377822	8.31796853
44	2	12.06137783	18.52352238	8.52076179
45	2	11.26633468	14.1991969	6.49423033
46	2	11.37138652	5.50950328	5.75217631
47	2	11.66121176	12.92836425	9.00468615
48	2	12.08758691	6.68108092	8.26356389
49	2	12.42173703	11.77682887	6.42283084
50	2	12.57065344	8.11064203	5.84645503
51	2	12.31443323	0.23531373	5.56695326
52	2	12.66039825	19.24928212	5.85359228
53	2	11.48528738	14.07660556	11.67410399
54	2	11.40448345	5.62191471	10.89951974
55	2	11.49720692	2.24001385	10.70812475
56	2	12.28279183	17.87363273	11.14061258
57	2	12.03249304	12.07154291	3.60884834
58	2	12.93793681	8.80049858	3.27720849
59	2	13.31557893	15.57865068	4.93023754
60	2	13.06781352	3.48016194	4.28486145
61	2	13.39762615	0.07917362	10.80594485
62	2	13.6916751	20.21294826	11.83259331
63	2	13.07195887	12.52974033	13.24592535
64	2	13.21371216	7.37816164	11.92859982
65	2	14.38235659	11.20650875	2.24412033
66	2	14.65444479	7.50255949	1.31142197
67	2	13.83945494	16.66462056	2.26970617
68	2	14.34111268	3.37605369	2.02262855
69	2	13.52081962	15.40714772	12.59188545
70	2	13.10295026	4.90320312	13.1987472
71	2	14.4882822	18.01670234	12.86058469
72	2	13.68386469	2.14113805	12.54411626
73	2	13.75309431	13.9703814	2.53122834
74	2	13.04443437	5.8769221	2.88061168
75	2	13.75052455	2.41537402	6.54894048
76	2	13.89929304	17.02328263	7.1731213
77	2	13.87758252	13.93741946	7.45402791
78	2	14.0360073	5.82507598	6.31686532
79	2	13.33305477	9.75146798	13.02202869
80	2	14.00199993	13.31220248	10.64707312
81	2	14.01893596	4.87492784	10.66007643
82	2	13.88147686	2.33485513	9.31750447
83	2	14.98495918	18.51936108	10.03307041
84	2	14.54182868	12.41608973	4.73430288
85	2	15.08812806	7.4134775	4.08550366
86	2	15.84695406	15.08313419	3.6611688
87	2	15.49186625	4.96038316	3.92339085
88	2	15.28194256	0.06070004	5.70205832
89	2	15.51129877	19.26603945	7.04839919
90	2	16.02599704	15.65637752	13.74960006
91	2	15.83933477	4.05690655	12.79026013
92	2	15.74899213	11.5198066	12.64106815
93	2	15.7841406	8.84213661	12.1052557
94	2	14.7711319	15.77276256	9.97830742
95	2	16.34197366	3.99409876	9.37756698
96	2	15.74807155	11.6811626	6.97745516
97	2	16.13104065	7.92824174	6.47981317
98	2	16.43626323	14.35644567	6.46494166
99	2	16.51335658	4.96402421	6.56878994
100	2	16.23927105	13.40769546	9.05748475
101	2	15.19129854	6.53348983	8.62662618
102	2	16.26103326	1.70808134	7.64228194
103	2	16.51317693	17.03364057	8.18748452
104	2	16.18347667	17.03919909	5.35903853
105	2	16.11773821	2.60147586	4.84991301
106	2	15.71761267	9.92573333	4.68592322
107	2	16.4326746	14.19507882	11.7321628
108	2	16.42175708	6.43684542	11.08053838
109	2	16.11426742	1.25235351	10.42455761
110	2	17.30222288	16.96199689	10.69037285
111	2	17.46009753	12.26847195	4.81791702
112	2	18.00181964	8.2390576	4.30338199
113	2	18.34027696	15.26521913	4.81897837
114	2	18.27457457	4.28555774	4.61177223
115	2	18.12933817	10.2234718	12.56303036
116	2	17.64850989	18.07229591	13.0317813
117	2	17.67017161	1.89193335	12.7019319
118	2	18.29229166	16.69554436	2.31982298
119	2	17.90958973	3.36291671	2.00063138
120	2	18.73829557	15.47717253	12.85038637
121	2	18.37701943	4.78630571	12.46092302
122	2	17.04961799	11.27412744	2.19897185
123	2	17.14840291	8.57432818	1.61505164
124	2	18.36462253	12.75655383	13.09718022
125	2	18.3634765	7.56664913	12.31496241
126	2	18.5386561	-0.12318966	10.95953982
127	2	17.41194063	19.84607165	10.92852913
128	2	18.19833299	13.80889732	2.52318213
129	2	18.01415934	6.04430455	2.34770642
130	2	18.66170556	2.54908397	10.11445411
131	2	19.6959508	18.49778211	10.94971122
132	2	18.891913	13.74395745	10.55764445
133	2	19.08974314	6.02040176	10.15020973
134	2	2.31461044	0.26926909	0.65084884
135	2	2.36395209	20.38036334	0.10220958
136	2	1.79696868	14.0474819	9.02588838
137	2	1.86504763	5.69856579	8.39076124
138	2	1.75317353	2.2644145	8.50446476
139	2	2.38126479	17.40747511	9.02148353
140	2	2.8189071	11.76660887	4.05511744
141	2	3.30099202	8.9706012	3.26701876
142	2	3.65715088	16.84322755	2.87536801
143	2	3.73904103	3.71595685	1.77914773
144	2	3.40699643	0.13473484	8.54578249
145	2	3.09045503	19.93850204	8.17295229
146	2	3.22975691	12.20241273	7.63229174
147	2	3.73395582	7.67959735	7.7393141
148	2	4.83711492	12.83131616	5.68979444
149	2	4.94174407	7.37490258	5.30922478
150	2	3.94779178	15.81512114	5.31138607
151	2	4.49858549	3.56587533	4.29045932
152	2	4.11774825	15.24685882	8.0659134
153	2	3.69852185	5.14707033	6.40934784
154	2	4.52747372	17.78844101	7.08000382
155	2	3.71327753	2.28563683	6.647124
156	2	4.26636036	14.03723153	3.19416882
157	2	3.76213406	6.24882196	3.09685827
158	2	4.0421619	2.28808752	-0.52930711
159	2	4.1927622	18.63700232	0.99003176
160	2	4.35768202	13.11388181	0.50119466
161	2	4.49428543	5.7831912	-0.27448992
162	2	4.12233881	9.97504773	6.21009353
163	2	4.35858293	13.26831196	10.03103816
164	2	4.41377845	5.18815083	9.18864074
165	2	4.37974906	2.58513184	9.5000787
166	2	5.06559873	18.44646272	9.52781966
167	2	5.4499712	11.3910928	3.30480306
168	2	5.94419233	8.06824636	2.8257996
169	2	6.17460807	16.00767003	3.46567288
170	2	6.17397717	5.10004531	2.34086611
171	2	5.3463557	0.09127301	0.72497705
172	2	6.25599311	20.50957225	0.6535443
173	2	6.47201301	15.69978074	6.43259953
174	2	6.13313472	3.74801702	6.72845822
175	2	5.93866353	11.22185136	7.93952903
176	2	6.49515832	8.52388483	7.15632406
177	2	4.93021816	15.81871862	10.84811059
178	2	6.8072906	3.95801121	9.89763752
179	2	6.91156496	12.95056146	1.53878088
180	2	6.39595804	7.93845671	-0.12878012
181	2	6.15076554	15.48469871	0.49691762
182	2	6.94951269	4.90631441	-0.34777662
183	2	6.58441752	13.39567642	11.67677926
184	2	6.29191401	6.68938653	10.55034114
185	2	6.34906701	1.55055922	11.42467984
186	2	6.2847367	18.13318586	12.06120864
187	2	6.72790418	17.9384467	1.76773341
188	2	6.46007869	2.41923262	1.12057678
189	2	6.90364656	10.15822046	1.17600991
190	2	6.75212768	14.32887849	9.03883123
191	2	6.8475506	5.97257519	7.95930033
192	2	6.60051213	1.44014203	8.55923899
193	2	7.32165628	16.87581376	9.86828378
194	2	8.26817452	11.4148273	3.32802633
195	2	8.47142438	7.81038736	2.13714554
196	2	8.61746494	15.85299463	2.19193848
197	2	8.54959325	4.14890365	1.67196636
198	2	8.72136863	9.97173906	7.2879629
199	2	8.32335522	17.75561296	7.39201798
200	2	8.32940119	1.69258694	6.46980577
201	2	8.45400932	16.75828955	5.01083717
202	2	7.8958338	3.14941694	4.27313783
203	2	8.90692922	14.89120028	7.34942506
204	2	8.74895305	4.45783468	6.62205173
205	2	7.31421896	11.99617553	5.87876702
206	2	8.08086246	8.5907214	4.82559921
207	2	8.56150953	12.30781373	8.5888254
208	2	9.15637093	7.23306706	6.77472933
209	2	8.79931971	-0.27991365	8.45705604
210	2	8.20121686	19.61840277	9.52497425
211	2	8.15008922	14.07740036	4.28531806
212	2	8.33101314	5.85527292	4.04619037
213	2	9.2273881	2.38778171	9.07219412
214	2	9.88121911	17.3391425	9.9811927
215	2	9.37909272	14.51927769	10.07163269
216	2	9.46963814	5.69144906	9.11192696
217	3	1.84194535	17.37061136	10.66099437
218	3	1.23289211	2.63011032	10.09284269
219	3	1.37727852	14.14972304	10.67325011
220	3	1.61934676	5.7133648	10.06030961
221	3	1.86121471	11.6948142	2.5716748
222	3	2.29650859	8.8075274	1.85540113
223	3	2.21944859	16.36263884	1.93959378
224	3	2.10045577	4.17486069	1.39616633
225	3	11.53084202	17.35171537	9.67895879
226	3	10.92739616	2.51872933	9.11894899
227	3	11.17703872	14.35273347	9.9352432
228	3	11.18440448	5.49059966	9.21325561
229	3	11.33898701	11.56573383	5.13026053
230	3	11.69677312	8.56547753	4.42476436
231	3	11.62587295	15.49992719	5.39942475
232	3	11.52496721	3.92782941	4.97265811
233	3	12.25344785	1.51717079	6.66618269
234	3	12.42162338	17.9029894	6.87717409
235	3	12.36653272	13.23215858	7.41248363
236	3	12.54721299	6.57073974	6.57297377
237	3	13.08935344	13.84565099	12.11091297
238	3	12.9108485	5.72677845	11.74070059
239	3	13.20427941	1.77283344	10.89889392
240	3	13.83752729	18.59530351	11.3608302
241	3	13.71222829	12.40540163	3.25836429
242	3	13.90916162	7.39508774	2.88445506
243	3	14.14891913	15.34898586	3.39315651
244	3	14.01601057	4.45675149	3.24308294
245	3	14.42676955	16.49225882	13.61263478
246	3	14.24890853	3.56213183	13.3081068
247	3	14.20882309	11.23998524	13.45797996
248	3	14.33015879	8.34939122	12.80968623
249	3	15.29983019	1.71393243	6.12513037
250	3	15.48591492	17.50232845	6.84598051
251	3	15.48816541	13.31815332	7.46563634
252	3	15.58418775	6.37767318	7.00357347
253	3	15.43608087	14.17671326	10.33851875
254	3	15.47631591	5.36494756	9.91727039
255	3	15.83678998	17.1018188	9.7616037
256	3	15.62900485	2.35389499	9.1796491
257	3	15.94568522	11.52974563	5.23845132
258	3	16.3407081	8.3662714	4.81803237
259	3	16.70216245	15.36668839	5.16717864
260	3	16.58855044	4.22171992	5.02621394
261	3	17.66109399	16.3993921	13.74843054
262	3	17.47629993	3.54866735	13.32318309
263	3	17.29534875	11.46563325	13.44104775
264	3	17.31675323	8.74679576	12.85483985
265	3	18.05630435	14.12380045	12.03068619
266	3	18.00389333	6.12936607	11.48609161
267	3	17.70625718	1.36384704	11.0200257
268	3	18.04897103	18.33414947	11.38449996
269	3	18.81221821	15.31598696	3.16281444
270	3	18.65440103	4.55927996	2.95781098
271	3	18.12847925	12.21725662	3.19244781
272	3	18.37100885	7.70830825	2.56614833
273	3	2.43047142	1.64936395	-0.30377331
274	3	2.70202431	18.61829778	0.24684703
275	3	2.79157159	13.86174027	0.52009484
276	3	2.97325606	6.58072059	-0.34447655
277	3	3.45393477	13.65729422	8.57770439
278	3	3.47642831	6.01262513	7.90636953
279	3	3.40614469	1.85457154	8.2385399
280	3	3.69321381	18.35371856	8.49890321
281	3	4.40864309	12.61434327	4.03403553
282	3	4.43708922	7.75320174	3.66984718
283	3	4.53359291	15.68846483	3.74337324
284	3	4.58517363	4.74096154	2.96117038
285	3	4.80785556	16.1061269	6.79047936
286	3	4.57105196	3.69760123	5.98054535
287	3	4.61665665	11.49545178	6.82616982
288	3	4.8241237	8.46825759	6.5667904
289	3	5.48224016	1.67669168	-0.07641437
290	3	5.83444322	18.78763906	0.57730468
291	3	5.98805132	13.71947581	0.34092051
292	3	6.05749386	6.40864449	-0.74733793
293	3	5.76145594	14.23897275	10.41275315
294	3	6.08384797	5.42311536	9.36163183
295	3	5.81429126	17.31174718	10.63018035
296	3	6.03241679	2.36125382	9.91206298
297	3	6.84165196	11.48790623	2.30203645
298	3	6.93894108	8.36296684	1.50418426
299	3	6.90635381	16.27968538	1.95330479
300	3	6.92089726	4.07636879	1.09194116
301	3	8.05549782	16.26323866	6.63957901
302	3	7.63933367	3.25252309	5.96774788
303	3	7.66987812	11.38927233	7.44167632
304	3	8.13494633	8.56522342	6.5574515
305	3	8.43494347	14.0591823	8.69895124
306	3	8.62678378	5.83845575	7.66874109
307	3	8.30491447	1.35367262	8.21581374
308	3	8.45756249	17.96958618	9.13183181
309	3	9.01523756	15.54583806	3.90037779
310	3	8.78438759	4.35785082	3.3988291
311	3	8.44056641	12.45738832	4.652852
312	3	8.83613572	7.44559569	3.75026874
313	1	13.54532226	44.57809167	5.93567371
314	1	11.48909354	24.6313529	5.45223034
315	1	13.33582023	24.71112455	9.85745028
316	1	13.71546248	45.86967905	11.25647972
317	1	14.9234292	24.83767895	4.78021624
318	1	15.61674331	44.28650252	8.03140862
319	1	19.53710726	24.91823617	10.9698727
320	1	16.88176869	45.12994783	11.57398933
321	1	1.37784957	45.42746503	0.08921244
322	1	3.18995133	24.87609191	1.03197274
323	1	3.41718232	24.94353325	9.49746755
324	1	2.07237572	44.9082132	8.12300481
325	1	6.24436266	24.76998718	1.06379891
326	1	6.80879	45.60939992	-0.1472504
327	1	8.24471548	24.22416342	9.17658351
328	1	7.70558404	44.87211874	8.74870524
329	2	1.30647868	40.32924966	3.17240542
330	2	1.21166503	29.23206951	2.90836373
331	2	0.39177657	36.17819901	3.27546789
332	2	0.96054363	32.63861712	2.40221144
333	2	1.41094846	40.73323067	11.23971876
334	2	2.00932644	29.01019071	10.66946393
335	2	2.01249893	35.37695112	1.38886562
336	2	1.50133058	42.6781072	1.22454693
337	2	1.51479286	27.73515243	0.53668084
338	2	1.72860532	26.22947136	11.13351054
339	2	3.13803226	42.81722484	11.68483146
340	2	2.76975289	40.4149416	0.59280407
341	2	1.83013653	30.61225946	0.56504916
342	2	1.93774396	38.18514465	12.08397456
343	2	2.45961714	31.84438367	10.96424234
344	2	1.87148317	38.09868133	1.82383919
345	2	3.11912036	33.00341491	0.55671449
346	2	10.71332188	40.2200485	3.8807462
347	2	10.53196329	28.9180128	3.52523827
348	2	9.86560753	37.21781147	5.54518478
349	2	10.53562826	32.33523412	3.80471958
350	2	11.99304833	40.63361551	9.27711914
351	2	11.51042947	28.89021912	8.41767203
352	2	10.90810744	34.88021539	4.87038154
353	2	11.11902308	41.85783602	6.1905955
354	2	11.06214553	27.56787954	6.00069712
355	2	11.8233532	26.19277822	8.31796853
356	2	12.06137783	43.42252238	8.52076179
357	2	11.26633468	39.0981969	6.49423033
358	2	11.37138652	30.40850328	5.75217631
359	2	11.66121176	37.82736425	9.00468615
360	2	12.08758691	31.58008092	8.26356389
361	2	12.42173703	36.67582887	6.42283084
362	2	12.57065344	33.00964203	5.84645503
363	2	12.31443323	25.13431373	5.56695326
364	2	12.66039825	44.14828212	5.85359228
365	2	11.48528738	38.97560556	11.67410399
366	2	11.40448345	30.52091471	10.89951974
367	2	11.49720692	27.13901385	10.70812475
368	2	12.28279183	42.77263273	11.14061258
369	2	12.03249304	36.97054291	3.60884834
370	2	12.93793681	33.69949858	3.27720849
371	2	13.31557893	40.47765068	4.93023754
372	2	13.06781352	28.37916194	4.28486145
373	2	13.39762615	24.97817362	10.80594485
374	2	13.6916751	45.11194826	11.83259331
375	2	13.07195887	37.42874033	13.24592535
376	2	13.21371216	32.27716164	11.92859982
377	2	14.38235659	36.10550875	2.24412033
378	2	14.65444479	32.40155949	1.31142197
379	2	13.83945494	41.56362056	2.26970617
380	2	14.34111268	28.27505369	2.02262855
381	2	13.52081962	40.30614772	12.59188545
382	2	13.10295026	29.80220312	13.1987472
383	2	14.4882822	42.91570234	12.86058469
384	2	13.68386469	27.04013805	12.54411626
385	2	13.75309431	38.8693814	2.53122834
386	2	13.04443437	30.7759221	2.88061168
387	2	13.75052455	27.31437402	6.54894048
388	2	13.89929304	41.92228263	7.1731213
389	2	13.87758252	38.83641946	7.45402791
390	2	14.0360073	30.72407598	6.31686532
391	2	13.33305477	34.65046798	13.02202869
392	2	14.00199993	38.21120248	10.64707312
393	2	14.01893596	29.77392784	10.66007643
394	2	13.88147686	27.23385513	9.31750447
395	2	14.98495918	43.41836108	10.03307041
396	2	14.54182868	37.31508973	4.73430288
397	2	15.08812806	32.3124775	4.08550366
398	2	15.84695406	39.98213419	3.6611688
399	2	15.49186625	29.85938316	3.92339085
400	2	15.28194256	24.95970004	5.70205832
401	2	15.51129877	44.16503945	7.04839919
402	2	16.02599704	40.55537752	13.74960006
403	2	15.83933477	28.95590655	12.79026013
404	2	15.74899213	36.4188066	12.64106815
405	2	15.7841406	33.74113661	12.1052557
406	2	14.7711319	40.67176256	9.97830742
407	2	16.34197366	28.89309876	9.37756698
408	2	15.74807155	36.5801626	6.97745516
409	2	16.13104065	32.82724174	6.47981317
410	2	16.43626323	39.25544567	6.46494166
411	2	16.51335658	29.86302421	6.56878994
412	2	16.23927105	38.30669546	9.05748475
413	2	15.19129854	31.43248983	8.62662618
414	2	16.26103326	26.60708134	7.64228194
415	2	16.51317693	41.93264057	8.18748452
416	2	16.18347667	41.93819909	5.35903853
417	2	16.11773821	27.50047586	4.84991301
418	2	15.71761267	34.82473333	4.68592322
419	2	16.4326746	39.09407882	11.7321628
420	2	16.42175708	31.33584542	11.08053838
421	2	16.11426742	26.15135351	10.42455761
422	2	17.30222288	41.86099689	10.69037285
423	2	17.46009753	37.16747195	4.81791702
424	2	18.00181964	33.1380576	4.30338199
425	2	18.34027696	40.16421913	4.81897837
426	2	18.27457457	29.18455774	4.61177223
427	2	18.12933817	35.1224718	12.56303036
428	2	17.64850989	42.97129591	13.0317813
429	2	17.67017161	26.79093335	12.7019319
430	2	18.29229166	41.59454436	2.31982298
431	2	17.90958973	28.26191671	2.00063138
432	2	18.73829557	40.37617253	12.85038637
433	2	18.37701943	29.68530571	12.46092302
434	2	17.04961799	36.17312744	2.19897185
435	2	17.14840291	33.47332818	1.61505164
436	2	18.36462253	37.65555383	13.09718022
437	2	18.3634765	32.46564913	12.31496241
438	2	18.5386561	24.77581034	10.95953982
439	2	17.41194063	44.74507165	10.92852913
440	2	18.19833299	38.70789732	2.52318213
441	2	18.01415934	30.94330455	2.34770642
442	2	18.66170556	27.44808397	10.11445411
443	2	19.6959508	43.39678211	10.94971122
444	2	18.891913	38.64295745	10.55764445
445	2	19.08974314	30.91940176	10.15020973
446	2	2.31461044	25.16826909	0.65084884
447	2	2.36395209	45.27936334	0.10220958
448	2	1.79696868	38.9464819	9.02588838
449	2	1.86504763	30.59756579	8.39076124
450	2	1.75317353	27.1634145	8.50446476
451	2	2.38126479	42.30647511	9.02148353
452	2	2.8189071	36.66560887	4.05511744
453	2	3.30099202	33.8696012	3.26701876
454	2	3.65715088	41.74222755	2.87536801
455	2	3.73904103	28.61495685	1.77914773
456	2	3.40699643	25.03373484	8.54578249
457	2	3.09045503	44.83750204	8.17295229
458	2	3.22975691	37.10141273	7.63229174
459	2	3.73395582	32.57859735	7.7393141
460	2	4.83711492	37.73031616	5.68979444
461	2	4.94174407	32.27390258	5.30922478
462	2	3.94779178	40.71412114	5.31138607
463	2	4.49858549	28.46487533	4.29045932
464	2	4.11774825	40.14585882	8.0659134
465	2	3.69852185	30.04607033	6.40934784
466	2	4.52747372	42.68744101	7.08000382
467	2	3.71327753	27.18463683	6.647124
468	2	4.26636036	38.93623153	3.19416882
469	2	3.76213406	31.14782196	3.09685827
470	2	4.0421619	27.18708752	-0.52930711
471	2	4.1927622	43.53600232	0.99003176
472	2	4.35768202	38.01288181	0.50119466
473	2	4.49428543	30.6821912	-0.27448992
474	2	4.12233881	34.87404773	6.21009353
475	2	4.35858293	38.16731196	10.03103816
476	2	4.41377845	30.08715083	9.18864074
477	2	4.37974906	27.48413184	9.5000787
478	2	5.06559873	43.34546272	9.52781966
479	2	5.4499712	36.2900928	3.30480306
480	2	5.94419233	32.96724636	2.8257996
481	2	6.17460807	40.90667003	3.46567288
482	2	6.17397717	29.99904531	2.34086611
483	2	5.3463557	24.99027301	0.72497705
484	2	6.25599311	45.40857225	0.6535443
485	2	6.47201301	40.59878074	6.43259953
486	2	6.13313472	28.64701702	6.72845822
487	2	5.93866353	36.12085136	7.93952903
488	2	6.49515832	33.42288483	7.15632406
489	2	4.93021816	40.71771862	10.84811059
490	2	6.8072906	28.85701121	9.89763752
491	2	6.91156496	37.84956146	1.53878088
492	2	6.39595804	32.83745671	-0.12878012
493	2	6.15076554	40.38369871	0.49691762
494	2	6.94951269	29.80531441	-0.34777662
495	2	6.58441752	38.29467642	11.67677926
496	2	6.29191401	31.58838653	10.55034114
497	2	6.34906701	26.44955922	11.42467984
498	2	6.2847367	43.03218586	12.06120864
499	2	6.72790418	42.8374467	1.76773341
500	2	6.46007869	27.31823262	1.12057678
501	2	6.90364656	35.05722046	1.17600991
502	2	6.75212768	39.22787849	9.03883123
503	2	6.8475506	30.87157519	7.95930033
504	2	6.60051213	26.33914203	8.55923899
505	2	7.32165628	41.77481376	9.86828378
506	2	8.26817452	36.3138273	3.32802633
507	2	8.47142438	32.70938736	2.13714554
508	2	8.61746494	40.75199463	2.19193848
509	2	8.54959325	29.04790365	1.67196636
510	2	8.72136863	34.87073906	7.2879629
511	2	8.32335522	42.65461296	7.39201798
512	2	8.32940119	26.59158694	6.46980577
513	2	8.45400932	41.65728955	5.01083717
514	2	7.8958338	28.04841694	4.27313783
515	2	8.90692922	39.79020028	7.34942506
516	2	8.74895305	29.35683468	6.62205173
517	2	7.31421896	36.89517553	5.87876702
518	2	8.08086246	33.4897214	4.82559921
519	2	8.56150953	37.20681373	8.5888254
520	2	9.15637093	32.13206706	6.77472933
521	2	8.79931971	24.61908635	8.45705604
522	2	8.20121686	44.51740277	9.52497425
523	2	8.15008922	38.97640036	4.28531806
524	2	8.33101314	30.75427292	4.04619037
525	2	9.2273881	27.28678171	9.07219412
526	2	9.88121911	42.2381425	9.9811927
527	2	9.37909272	39.41827769	10.07163269
528	2	9.46963814	30.59044906	9.11192696
529	3	1.84194535	42.26961136	10.66099437
530	3	1.23289211	27.52911032	10.09284269
531	3	1.37727852	39.04872304	10.67325011
532	3	1.61934676	30.6123648	10.06030961
533	3	1.86121471	36.5938142	2.5716748
534	3	2.29650859	33.7065274	1.85540113
535	3	2.21944859	41.26163884	1.93959378
536	3	2.10045577	29.07386069	1.39616633
537	3	11.53084202	42.25071537	9.67895879
538	3	10.92739616	27.41772933	9.11894899
539	3	11.17703872	39.25173347	9.9352432
540	3	11.18440448	30.38959966	9.21325561
541	3	11.33898701	36.46473383	5.13026053
542	3	11.69677312	33.46447753	4.42476436
543	3	11.62587295	40.39892719	5.39942475
544	3	11.52496721	28.82682941	4.97265811
545	3	12.25344785	26.41617079	6.66618269
546	3	12.42162338	42.8019894	6.87717409
547	3	12.36653272	38.13115858	7.41248363
548	3	12.54721299	31.46973974	6.57297377
549	3	13.08935344	38.74465099	12.11091297
550	3	12.9108485	30.62577845	11.74070059
551	3	13.20427941	26.67183344	10.89889392
552	3	13.83752729	43.49430351	11.3608302
553	3	13.71222829	37.30440163	3.25836429
554	3	13.90916162	32.29408774	2.88445506
555	3	14.14891913	40.24798586	3.39315651
556	3	14.01601057	29.35575149	3.24308294
557	3	14.42676955	41.39125882	13.61263478
558	3	14.24890853	28.46113183	13.3081068
559	3	14.20882309	36.13898524	13.45797996
560	3	14.33015879	33.24839122	12.80968623
561	3	15.29983019	26.61293243	6.12513037
562	3	15.48591492	42.40132845	6.84598051
563	3	15.48816541	38.21715332	7.46563634
564	3	15.58418775	31.27667318	7.00357347
565	3	15.43608087	39.07571326	10.33851875
566	3	15.47631591	30.26394756	9.91727039
567	3	15.83678998	42.0008188	9.7616037
568	3	15.62900485	27.25289499	9.1796491
569	3	15.94568522	36.42874563	5.23845132
570	3	16.3407081	33.2652714	4.81803237
571	3	16.70216245	40.26568839	5.16717864
572	3	16.58855044	29.12071992	5.02621394
573	3	17.66109399	41.2983921	13.74843054
574	3	17.47629993	28.44766735	13.32318309
575	3	17.29534875	36.36463325	13.44104775
576	3	17.31675323	33.64579576	12.85483985
577	3	18.05630435	39.02280045	12.03068619
578	3	18.00389333	31.02836607	11.48609161
579	3	17.70625718	26.26284704	11.0200257
580	3	18.04897103	43.23314947	11.38449996
581	3	18.81221821	40.21498696	3.16281444
582	3	18.65440103	29.45827996	2.95781098
583	3	18.12847925	37.11625662	3.19244781
584	3	18.37100885	32.60730825	2.56614833
585	3	2.43047142	26.54836395	-0.30377331
586	3	2.70202431	43.51729778	0.24684703
587	3	2.79157159	38.76074027	0.52009484
588	3	2.97325606	31.47972059	-0.34447655
589	3	3.45393477	38.55629422	8.57770439
590	3	3.47642831	30.91162513	7.90636953
591	3	3.40614469	26.75357154	8.2385399
592	3	3.69321381	43.25271856	8.49890321
593	3	4.40864309	37.51334327	4.03403553
594	3	4.43708922	32.65220174	3.66984718
595	3	4.53359291	40.58746483	3.74337324
596	3	4.58517363	29.63996154	2.96117038
597	3	4.80785556	41.0051269	6.79047936
598	3	4.57105196	28.59660123	5.98054535
599	3	4.61665665	36.39445178	6.82616982
600	3	4.8241237	33.36725759	6.5667904
601	3	5.48224016	26.57569168	-0.07641437
602	3	5.83444322	43.68663906	0.57730468
603	3	5.98805132	38.61847581	0.34092051
604	3	6.05749386	31.30764449	-0.74733793
605	3	5.76145594	39.13797275	10.41275315
606	3	6.08384797	30.32211536	9.36163183
607	3	5.81429126	42.21074718	10.63018035
608	3	6.03241679	27.26025382	9.91206298
609	3	6.84165196	36.38690623	2.30203645
610	3	6.93894108	33.26196684	1.50418426
611	3	6.90635381	41.17868538	1.95330479
612	3	6.92089726	28.97536879	1.09194116
613	3	8.05549782	41.16223866	6.63957901
614	3	7.63933367	28.15152309	5.96774788
615	3	7.66987812	36.28827233	7.44167632
616	3	8.13494633	33.46422342	6.5574515
617	3	8.43494347	38.9581823	8.69895124
618	3	8.62678378	30.73745575	7.66874109
619	3	8.30491447	26.25267262	8.21581374
620	3	8.45756249	42.86858618	9.13183181
621	3	9.01523756	40.44483806	3.90037779
622	3	8.78438759	29.25685082	3.3988291
623	3	8.44056641	37.35638832	4.652852
624	3	8.83613572	32.34459569	3.75026874
