LAMMPS (29 Aug 2024 - Update 1)
##########################################
# USER-SPECIFIED VARIABLES
##########################################

variable tstep               equal  0.5                                        # timestep in fs
variable run_steps           equal  500                                        # Number of steps to run
variable temperature         equal  3000                                       # Temperature (K)
variable pressure            equal  30                                         # Target pressure (atm)

variable io_freq             equal  10                                         # Frequency of dumping trajectory (500 steps, 250 fs)

variable data_file           string /scratch/08034/tg873340/LAMMPS_test/lammps_data_files/diamond_3.21gcc_512atoms.data.in
variable param_file          string /scratch/08034/tg873340/LAMMPS_test/chimes_parameter_files/published_params.Carbon-2.0.Small.2+3+4b.Tersoff.txt

########################################
# GENERAL CONTROLS
########################################

units           real                          # Required for CHIMES pair style
newton          on                            # Required for CHIMES pair style
atom_style      atomic                        # Required for CHIMES pair style
atom_modify     sort 0 0.0                    # Prevent sorting (to maintain 3b parent/neighbor relationships)
atom_modify     map array                     # May improve efficiency

neighbor        1.5 bin
neigh_modify    delay 0 every 1 check yes

########################################
# INITIALIZATION CONTROLS
########################################

read_data       ${data_file}
read_data       /scratch/08034/tg873340/LAMMPS_test/lammps_data_files/diamond_3.21gcc_512atoms.data.in
Reading data file ...
  orthogonal box = (0 0 0) to (14.69002 14.69002 14.69002)
  1 by 1 by 1 MPI processor grid
  reading atoms ...
  512 atoms
  read_data CPU = 0.003 seconds
velocity        all create ${temperature} 1234 dist gaussian mom yes rot yes loop all  # Assign initial velocity (comment this line out when reading from a restart file)
velocity        all create 3000 1234 dist gaussian mom yes rot yes loop all  


########################################
# FORCE FIELD CONTROLS
########################################

pair_style      chimesFF
pair_coeff      * * ${param_file}
pair_coeff      * * /scratch/08034/tg873340/LAMMPS_test/chimes_parameter_files/published_params.Carbon-2.0.Small.2+3+4b.Tersoff.txt


########################################
# RESTART CONTROLS
########################################

restart         ${io_freq} a.restart b.restart	 # Write restart files
restart         10 a.restart b.restart	 

########################################
# RUN, DUMP, AND THERMO CONTROLS
########################################

##### Set the ensemble
variable temp_damp  equal  v_tstep*100.0	# Temperature damping coefficient
variable press_damp equal  v_tstep*1000.0	# Pressure damping coefficient
fix             1 all nve

##### Define thermo output
thermo_style    custom step time temp press density ke pe etotal econserve
thermo_modify   line one format float %20.5f flush yes
thermo          ${io_freq}
thermo          10

##### Dump all atoms
#dump            dump_1 carbon ${io_freq} traj.lammpstrj id type element xu yu zu vx vy vz
#dump_modify     dump_1 sort id element C

##### Run the simulation

timestep        ${tstep}
timestep        0.5
run             ${run_steps} upto
run             500 upto

CITE-CITE-CITE-CITE-CITE-CITE-CITE-CITE-CITE-CITE-CITE-CITE-CITE

Your simulation uses code contributions which should be cited:

- Type Label Framework: https://doi.org/10.1021/acs.jpcb.3c08419

@Article{Gissinger24,
 author = {Jacob R. Gissinger, Ilia Nikiforov, Yaser Afshar, Brendon Waters, Moon-ki Choi, Daniel S. Karls, Alexander Stukowski, Wonpil Im, Hendrik Heinz, Axel Kohlmeyer, and Ellad B. Tadmor},
 title = {Type Label Framework for Bonded Force Fields in LAMMPS},
 journal = {J. Phys. Chem. B},
 year =    2024,
 volume =  128,
 number =  13,
 pages =   {3282–-3297}
}

CITE-CITE-CITE-CITE-CITE-CITE-CITE-CITE-CITE-CITE-CITE-CITE-CITE

Generated 0 of 0 mixed pair_coeff terms from geometric mixing rule
Neighbor list info ...
  update: every = 1 steps, delay = 0 steps, check = yes
  max neighbors/atom: 2000, page size: 100000
  master list distance cutoff = 6.5
  ghost atom cutoff = 6.5
  binsize = 3.25, bins = 5 5 5
  1 neighbor lists, perpetual/occasional/extra = 1 0 0
  (1) pair chimesFF, perpetual
      attributes: full, newton on, ghost
      pair build: full/bin/ghost
      stencil: full/ghost/bin/3d
      bin: standard
Per MPI rank memory allocation (min/avg/max) = 4.618 | 4.618 | 4.618 Mbytes
   Step          Time           Temp          Press         Density         KinEng         PotEng         TotEng       Econserve   
         0               0.00000           3000.00000        -243441.37095              3.22122           4569.58181        -106757.39823        -102187.81642        -102187.81642
        10               5.00000           1383.70754        -193104.65727              3.22122           2107.65493        -104290.08495        -102182.43002        -102182.43002
        20              10.00000            525.48289        -180169.00604              3.22122            800.41236        -102982.11770        -102181.70535        -102181.70535
        30              15.00000           1509.00203        -209534.38585              3.22122           2298.50274        -104483.16627        -102184.66352        -102184.66352
        40              20.00000           1711.64393        -213071.11740              3.22122           2607.16565        -104791.38598        -102184.22032        -102184.22032
        50              25.00000           1331.23454        -198489.79967              3.22122           2027.72838        -104210.88611        -102183.15773        -102183.15773
        60              30.00000           1476.35123        -196680.88643              3.22122           2248.76925        -104432.49565        -102183.72640        -102183.72640
        70              35.00000           1681.09063        -205372.97667              3.22122           2560.62705        -104745.24943        -102184.62237        -102184.62237
        80              40.00000           1311.60891        -205478.75872              3.22122           1997.83473        -104180.75029        -102182.91556        -102182.91556
        90              45.00000           1462.92345        -204181.01413              3.22122           2228.31612        -104412.22019        -102183.90407        -102183.90407
       100              50.00000           1539.29578        -198859.03638              3.22122           2344.64599        -104528.68384        -102184.03785        -102184.03785
       110              55.00000           1362.42330        -194919.97378              3.22122           2075.23490        -104258.47017        -102183.23526        -102183.23526
       120              60.00000           1567.01336        -201934.16117              3.22122           2386.86525        -104570.72481        -102183.85956        -102183.85956
       130              65.00000           1679.25154        -204174.93426              3.22122           2557.82576        -104742.12106        -102184.29530        -102184.29530
       140              70.00000           1391.13518        -197082.20850              3.22122           2118.96867        -104302.39558        -102183.42691        -102183.42691
       150              75.00000           1339.62118        -204256.45292              3.22122           2040.50285        -104224.01879        -102183.51594        -102183.51594
       160              80.00000           1486.63224        -208243.95160              3.22122           2264.42922        -104448.40979        -102183.98057        -102183.98057
       170              85.00000           1454.87517        -200600.22679              3.22122           2216.05704        -104399.70904        -102183.65200        -102183.65200
       180              90.00000           1494.26746        -196794.95972              3.22122           2276.05913        -104459.76734        -102183.70821        -102183.70821
       190              95.00000           1595.78151        -202246.58844              3.22122           2430.68473        -104614.73782        -102184.05310        -102184.05310
       200             100.00000           1475.75049        -203112.71354              3.22122           2247.85419        -104431.60087        -102183.74668        -102183.74668
       210             105.00000           1349.07418        -201603.59037              3.22122           2054.90161        -104238.34284        -102183.44122        -102183.44122
       220             110.00000           1457.13902        -201183.45307              3.22122           2219.50531        -104403.36185        -102183.85654        -102183.85654
       230             115.00000           1508.82308        -199573.17178              3.22122           2298.23017        -104481.91916        -102183.68899        -102183.68899
       240             120.00000           1588.49556        -200860.79306              3.22122           2419.58680        -104603.45578        -102183.86898        -102183.86898
       250             125.00000           1570.95203        -203344.90130              3.22122           2392.86460        -104576.82003        -102183.95543        -102183.95543
       260             130.00000           1415.85782        -200206.92137              3.22122           2156.62605        -104340.09762        -102183.47157        -102183.47157
       270             135.00000           1472.03411        -204177.81051              3.22122           2242.19343        -104426.04758        -102183.85415        -102183.85415
       280             140.00000           1454.63202        -207799.61635              3.22122           2215.68667        -104399.50148        -102183.81480        -102183.81480
       290             145.00000           1355.71586        -200860.44878              3.22122           2065.01817        -104248.52630        -102183.50812        -102183.50812
       300             150.00000           1440.38734        -202104.40581              3.22122           2193.98926        -104377.62620        -102183.63694        -102183.63694
       310             155.00000           1596.33060        -207194.13540              3.22122           2431.52109        -104615.58110        -102184.06001        -102184.06001
       320             160.00000           1523.56833        -205470.01505              3.22122           2320.69005        -104504.42231        -102183.73226        -102183.73226
       330             165.00000           1447.84871        -200400.07224              3.22122           2205.35438        -104388.93138        -102183.57700        -102183.57700
       340             170.00000           1497.43907        -200842.92753              3.22122           2280.89010        -104464.79418        -102183.90408        -102183.90408
       350             175.00000           1449.18878        -201135.80246              3.22122           2207.39556        -104391.06893        -102183.67337        -102183.67337
       360             180.00000           1480.56329        -198628.14859              3.22122           2255.18502        -104438.77271        -102183.58769        -102183.58769
       370             185.00000           1627.83961        -201141.64271              3.22122           2479.51542        -104663.64739        -102184.13198        -102184.13198
       380             190.00000           1484.40752        -200402.01405              3.22122           2261.04053        -104444.75542        -102183.71489        -102183.71489
       390             195.00000           1357.10730        -203433.34374              3.22122           2067.13762        -104250.58508        -102183.44746        -102183.44746
       400             200.00000           1470.65770        -206717.62910              3.22122           2240.09688        -104424.01716        -102183.92027        -102183.92027
       410             205.00000           1431.88276        -203674.67624              3.22122           2181.03514        -104364.84399        -102183.80885        -102183.80885
       420             210.00000           1363.68646        -197500.82853              3.22122           2077.15895        -104260.51959        -102183.36064        -102183.36064
       430             215.00000           1601.15708        -201818.10181              3.22122           2438.87275        -104622.87298        -102184.00023        -102184.00023
       440             220.00000           1638.36877        -201046.81430              3.22122           2495.55337        -104679.64994        -102184.09657        -102184.09657
       450             225.00000           1378.82789        -197514.97661              3.22122           2100.22228        -104283.61715        -102183.39487        -102183.39487
       460             230.00000           1407.40861        -197867.44761              3.22122           2143.75626        -104327.23091        -102183.47465        -102183.47465
       470             235.00000           1658.18041        -203880.58900              3.22122           2525.73035        -104709.94538        -102184.21503        -102184.21503
       480             240.00000           1541.67218        -199531.13649              3.22122           2348.26572        -104532.07295        -102183.80723        -102183.80723
       490             245.00000           1347.49766        -194598.89966              3.22122           2052.50027        -104235.97580        -102183.47553        -102183.47553
       500             250.00000           1380.62899        -196615.12683              3.22122           2102.96571        -104286.70537        -102183.73966        -102183.73966
Loop time of 584.585 on 1 procs for 500 steps with 512 atoms

Performance: 0.037 ns/day, 649.539 hours/ns, 0.855 timesteps/s, 437.917 atom-step/s
99.5% CPU use with 1 MPI tasks x no OpenMP threads

MPI task timing breakdown:
Section |  min time  |  avg time  |  max time  |%varavg| %total
---------------------------------------------------------------
Pair    | 583.57     | 583.57     | 583.57     |   0.0 | 99.83
Neigh   | 0.77492    | 0.77492    | 0.77492    |   0.0 |  0.13
Comm    | 0.012221   | 0.012221   | 0.012221   |   0.0 |  0.00
Output  | 0.22283    | 0.22283    | 0.22283    |   0.0 |  0.04
Modify  | 0.0034288  | 0.0034288  | 0.0034288  |   0.0 |  0.00
Other   |            | 0.003413   |            |       |  0.00

Nlocal:            512 ave         512 max         512 min
Histogram: 1 0 0 0 0 0 0 0 0 0
Nghost:           3081 ave        3081 max        3081 min
Histogram: 1 0 0 0 0 0 0 0 0 0
Neighs:              0 ave           0 max           0 min
Histogram: 1 0 0 0 0 0 0 0 0 0
FullNghs:        88372 ave       88372 max       88372 min
Histogram: 1 0 0 0 0 0 0 0 0 0

Total # of neighbors = 88372
Ave neighs/atom = 172.60156
Neighbor list builds = 50
Dangerous builds = 0
Total wall time: 0:09:46
