LAMMPS data file

216 atoms
1 atom types

0.0 13.4 xlo xhi
0.0 13.4 ylo yhi
0.0 13.4 zlo zhi
0.0 0.0 0.0 xy xz yz

Masses

1 28.085 # Si

Atoms

1 1 3.35 3.35 1.11667
2 1 0.0 2.23333 2.23333
3 1 3.35 1.11667 3.35
4 1 0.0 0.0 0.0
5 1 1.11667 3.35 3.35
6 1 2.23333 2.23333 0.0
7 1 1.11667 1.11667 1.11667
8 1 2.23333 0.0 2.23333
9 1 3.35 3.35 5.58333
10 1 0.0 2.23333 6.7
11 1 3.35 1.11667 7.81667
12 1 0.0 0.0 4.46667
13 1 1.11667 3.35 7.81667
14 1 2.23333 2.23333 4.46667
15 1 1.11667 1.11667 5.58333
16 1 2.23333 0.0 6.7
17 1 3.35 3.35 10.05
18 1 0.0 2.23333 11.16667
19 1 3.35 1.11667 12.28333
20 1 0.0 0.0 8.93333
21 1 1.11667 3.35 12.28333
22 1 2.23333 2.23333 8.93333
23 1 1.11667 1.11667 10.05
24 1 2.23333 0.0 11.16667
25 1 3.35 7.81667 1.11667
26 1 0.0 6.7 2.23333
27 1 3.35 5.58333 3.35
28 1 0.0 4.46667 0.0
29 1 1.11667 7.81667 3.35
30 1 2.23333 6.7 0.0
31 1 1.11667 5.58333 1.11667
32 1 2.23333 4.46667 2.23333
33 1 3.35 7.81667 5.58333
34 1 0.0 6.7 6.7
35 1 3.35 5.58333 7.81667
36 1 0.0 4.46667 4.46667
37 1 1.11667 7.81667 7.81667
38 1 2.23333 6.7 4.46667
39 1 1.11667 5.58333 5.58333
40 1 2.23333 4.46667 6.7
41 1 3.35 7.81667 10.05
42 1 0.0 6.7 11.16667
43 1 3.35 5.58333 12.28333
44 1 0.0 4.46667 8.93333
45 1 1.11667 7.81667 12.28333
46 1 2.23333 6.7 8.93333
47 1 1.11667 5.58333 10.05
48 1 2.23333 4.46667 11.16667
49 1 3.35 12.28333 1.11667
50 1 0.0 11.16667 2.23333
51 1 3.35 10.05 3.35
52 1 0.0 8.93333 0.0
53 1 1.11667 12.28333 3.35
54 1 2.23333 11.16667 0.0
55 1 1.11667 10.05 1.11667
56 1 2.23333 8.93333 2.23333
57 1 3.35 12.28333 5.58333
58 1 0.0 11.16667 6.7
59 1 3.35 10.05 7.81667
60 1 0.0 8.93333 4.46667
61 1 1.11667 12.28333 7.81667
62 1 2.23333 11.16667 4.46667
63 1 1.11667 10.05 5.58333
64 1 2.23333 8.93333 6.7
65 1 3.35 12.28333 10.05
66 1 0.0 11.16667 11.16667
67 1 3.35 10.05 12.28333
68 1 0.0 8.93333 8.93333
69 1 1.11667 12.28333 12.28333
70 1 2.23333 11.16667 8.93333
71 1 1.11667 10.05 10.05
72 1 2.23333 8.93333 11.16667
73 1 7.81667 3.35 1.11667
74 1 4.46667 2.23333 2.23333
75 1 7.81667 1.11667 3.35
76 1 4.46667 0.0 0.0
77 1 5.58333 3.35 3.35
78 1 6.7 2.23333 0.0
79 1 5.58333 1.11667 1.11667
80 1 6.7 0.0 2.23333
81 1 7.81667 3.35 5.58333
82 1 4.46667 2.23333 6.7
83 1 7.81667 1.11667 7.81667
84 1 4.46667 0.0 4.46667
85 1 5.58333 3.35 7.81667
86 1 6.7 2.23333 4.46667
87 1 5.58333 1.11667 5.58333
88 1 6.7 0.0 6.7
89 1 7.81667 3.35 10.05
90 1 4.46667 2.23333 11.16667
91 1 7.81667 1.11667 12.28333
92 1 4.46667 0.0 8.93333
93 1 5.58333 3.35 12.28333
94 1 6.7 2.23333 8.93333
95 1 5.58333 1.11667 10.05
96 1 6.7 0.0 11.16667
97 1 7.81667 7.81667 1.11667
98 1 4.46667 6.7 2.23333
99 1 7.81667 5.58333 3.35
100 1 4.46667 4.46667 0.0
101 1 5.58333 7.81667 3.35
102 1 6.7 6.7 0.0
103 1 5.58333 5.58333 1.11667
104 1 6.7 4.46667 2.23333
105 1 7.81667 7.81667 5.58333
106 1 4.46667 6.7 6.7
107 1 7.81667 5.58333 7.81667
108 1 4.46667 4.46667 4.46667
109 1 5.58333 7.81667 7.81667
110 1 6.7 6.7 4.46667
111 1 5.58333 5.58333 5.58333
112 1 6.7 4.46667 6.7
113 1 7.81667 7.81667 10.05
114 1 4.46667 6.7 11.16667
115 1 7.81667 5.58333 12.28333
116 1 4.46667 4.46667 8.93333
117 1 5.58333 7.81667 12.28333
118 1 6.7 6.7 8.93333
119 1 5.58333 5.58333 10.05
120 1 6.7 4.46667 11.16667
121 1 7.81667 12.28333 1.11667
122 1 4.46667 11.16667 2.23333
123 1 7.81667 10.05 3.35
124 1 4.46667 8.93333 0.0
125 1 5.58333 12.28333 3.35
126 1 6.7 11.16667 0.0
127 1 5.58333 10.05 1.11667
128 1 6.7 8.93333 2.23333
129 1 7.81667 12.28333 5.58333
130 1 4.46667 11.16667 6.7
131 1 7.81667 10.05 7.81667
132 1 4.46667 8.93333 4.46667
133 1 5.58333 12.28333 7.81667
134 1 6.7 11.16667 4.46667
135 1 5.58333 10.05 5.58333
136 1 6.7 8.93333 6.7
137 1 7.81667 12.28333 10.05
138 1 4.46667 11.16667 11.16667
139 1 7.81667 10.05 12.28333
140 1 4.46667 8.93333 8.93333
141 1 5.58333 12.28333 12.28333
142 1 6.7 11.16667 8.93333
143 1 5.58333 10.05 10.05
144 1 6.7 8.93333 11.16667
145 1 12.28333 3.35 1.11667
146 1 8.93333 2.23333 2.23333
147 1 12.28333 1.11667 3.35
148 1 8.93333 0.0 0.0
149 1 10.05 3.35 3.35
150 1 11.16667 2.23333 0.0
151 1 10.05 1.11667 1.11667
152 1 11.16667 0.0 2.23333
153 1 12.28333 3.35 5.58333
154 1 8.93333 2.23333 6.7
155 1 12.28333 1.11667 7.81667
156 1 8.93333 0.0 4.46667
157 1 10.05 3.35 7.81667
158 1 11.16667 2.23333 4.46667
159 1 10.05 1.11667 5.58333
160 1 11.16667 0.0 6.7
161 1 12.28333 3.35 10.05
162 1 8.93333 2.23333 11.16667
163 1 12.28333 1.11667 12.28333
164 1 8.93333 0.0 8.93333
165 1 10.05 3.35 12.28333
166 1 11.16667 2.23333 8.93333
167 1 10.05 1.11667 10.05
168 1 11.16667 0.0 11.16667
169 1 12.28333 7.81667 1.11667
170 1 8.93333 6.7 2.23333
171 1 12.28333 5.58333 3.35
172 1 8.93333 4.46667 0.0
173 1 10.05 7.81667 3.35
174 1 11.16667 6.7 0.0
175 1 10.05 5.58333 1.11667
176 1 11.16667 4.46667 2.23333
177 1 12.28333 7.81667 5.58333
178 1 8.93333 6.7 6.7
179 1 12.28333 5.58333 7.81667
180 1 8.93333 4.46667 4.46667
181 1 10.05 7.81667 7.81667
182 1 11.16667 6.7 4.46667
183 1 10.05 5.58333 5.58333
184 1 11.16667 4.46667 6.7
185 1 12.28333 7.81667 10.05
186 1 8.93333 6.7 11.16667
187 1 12.28333 5.58333 12.28333
188 1 8.93333 4.46667 8.93333
189 1 10.05 7.81667 12.28333
190 1 11.16667 6.7 8.93333
191 1 10.05 5.58333 10.05
192 1 11.16667 4.46667 11.16667
193 1 12.28333 12.28333 1.11667
194 1 8.93333 11.16667 2.23333
195 1 12.28333 10.05 3.35
196 1 8.93333 8.93333 0.0
197 1 10.05 12.28333 3.35
198 1 11.16667 11.16667 0.0
199 1 10.05 10.05 1.11667
200 1 11.16667 8.93333 2.23333
201 1 12.28333 12.28333 5.58333
202 1 8.93333 11.16667 6.7
203 1 12.28333 10.05 7.81667
204 1 8.93333 8.93333 4.46667
205 1 10.05 12.28333 7.81667
206 1 11.16667 11.16667 4.46667
207 1 10.05 10.05 5.58333
208 1 11.16667 8.93333 6.7
209 1 12.28333 12.28333 10.05
210 1 8.93333 11.16667 11.16667
211 1 12.28333 10.05 12.28333
212 1 8.93333 8.93333 8.93333
213 1 10.05 12.28333 12.28333
214 1 11.16667 11.16667 8.93333
215 1 10.05 10.05 10.05
216 1 11.16667 8.93333 11.16667
