# LAMMPS data file written by OVITO Basic 3.10.6

200 atoms
1 atom types

0.0 11.68 xlo xhi
0.0 11.68 ylo yhi
0.0 11.68 zlo zhi
0.0 0.0 0.0 xy xz yz

Masses

1 12.011

Atoms  # atomic

1	1	6.64379	1.33949	11.39837
2	1	1.28213	8.80047	1.39814
3	1	3.95815	8.42688	6.3179
4	1	4.69056	4.64479	11.12297
5	1	1.16113	11.29213	7.23419
6	1	6.36844	6.0311	10.21231
7	1	0.38173	4.53741	2.28288
8	1	6.20672	11.55009	3.01595
9	1	6.57397	3.73663	1.08942
10	1	9.30731	0.14361	9.6793
11	1	6.57658	11.50181	9.55858
12	1	9.41225	1.56728	1.60411
13	1	0.13307	5.93691	5.31851
14	1	2.6312	0.71022	5.55231
15	1	11.61103	8.29992	6.59292
16	1	3.60759	6.90976	10.14449
17	1	2.30996	0.46937	9.43541
18	1	3.73994	5.5886	4.29441
19	1	9.0331	0.77231	8.53591
20	1	6.67931	0.64307	6.81952
21	1	1.4948	8.3507	10.27034
22	1	8.08077	9.07631	6.00501
23	1	6.14297	11.59932	4.38038
24	1	10.63722	1.09372	7.78961
25	1	3.55672	8.88875	3.75423
26	1	1.53921	6.34489	5.87437
27	1	11.03263	6.39768	10.82668
28	1	10.64458	10.92831	9.54275
29	1	7.60392	8.36296	2.27507
30	1	9.91853	3.62965	2.32841
31	1	4.44449	7.18352	5.67484
32	1	6.70829	7.30829	11.26295
33	1	11.12102	8.31954	0.08734
34	1	3.65643	7.54049	0.15491
35	1	5.65979	8.93708	9.43459
36	1	8.97518	5.62251	10.51728
37	1	1.41861	2.65746	11.05405
38	1	10.08368	1.74071	9.14728
39	1	6.36997	5.74242	5.06941
40	1	3.11727	3.20725	9.73347
41	1	4.14719	4.41244	1.7569
42	1	4.28627	4.248	8.04976
43	1	10.44552	1.17927	0.29113
44	1	8.66002	4.52255	0.19429
45	1	6.03804	9.76188	0.47149
46	1	0.44872	3.76184	3.6089
47	1	5.70096	9.74996	4.17081
48	1	0.96486	0.53547	10.4855
49	1	6.06153	3.63567	2.41847
50	1	5.41255	10.49078	9.15622
51	1	5.39915	2.32691	6.85525
52	1	10.23031	8.64231	5.91021
53	1	7.76766	6.06694	9.88972
54	1	10.73551	6.09798	2.77585
55	1	2.49536	8.53999	1.81426
56	1	2.51904	11.20723	1.03152
57	1	9.94154	4.41272	1.14349
58	1	2.57585	2.02693	10.38064
59	1	1.50251	7.39324	6.7899
60	1	9.18073	4.59951	9.38238
61	1	5.05062	6.32568	4.96305
62	1	8.72063	2.64884	2.99274
63	1	2.59565	10.87857	9.90636
64	1	9.29974	6.05493	4.68261
65	1	8.89929	7.97841	6.26533
66	1	6.45981	11.54316	11.26233
67	1	9.92594	0.68439	3.39092
68	1	10.4161	11.51052	0.86507
69	1	8.58679	0.55876	2.41648
70	1	3.52868	0.2959	2.99969
71	1	11.59123	8.89585	1.39221
72	1	6.66661	6.37181	7.54845
73	1	10.1655	10.62348	7.92273
74	1	7.67309	11.23048	7.27695
75	1	9.58984	9.2584	8.62198
76	1	0.68637	2.91061	5.9223
77	1	0.52362	3.53569	10.75064
78	1	1.11148	10.84473	0.86957
79	1	8.21024	10.74748	2.58611
80	1	6.90655	10.10743	7.20707
81	1	6.32027	2.06753	10.1286
82	1	1.43245	6.7914	3.77341
83	1	8.20271	5.77469	2.08948
84	1	6.68003	1.86911	7.4756
85	1	0.5656	1.17108	3.71585
86	1	7.84136	10.9387	10.92977
87	1	9.71967	2.36278	4.11214
88	1	1.52185	4.11006	7.81707
89	1	1.43934	4.47919	6.46913
90	1	10.1945	3.3851	9.22301
91	1	6.37165	8.65425	7.5224
92	1	6.74962	5.69574	6.42029
93	1	7.12865	2.31936	0.58808
94	1	1.17245	8.84837	7.53231
95	1	3.73144	2.20615	6.98527
96	1	10.37529	3.69392	7.69411
97	1	10.19982	8.85103	11.12202
98	1	6.83194	9.22209	5.84457
99	1	0.8921	9.10701	8.90572
100	1	7.5437	3.0984	7.93265
101	1	9.02899	8.90783	1.74191
102	1	0.29956	10.17483	5.34908
103	1	8.79557	7.55635	7.63733
104	1	7.10641	10.63796	3.49888
105	1	6.992	4.20349	7.52075
106	1	3.97019	6.84592	2.62311
107	1	2.11082	11.28154	4.8455
108	1	2.97041	3.48465	8.00438
109	1	5.40317	4.13387	7.22414
110	1	2.04983	0.93799	8.11187
111	1	8.42324	1.693	11.24733
112	1	10.23072	3.56128	3.8375
113	1	7.6179	9.58313	11.57232
114	1	8.45788	4.41391	7.93835
115	1	3.55116	2.93357	1.84439
116	1	5.40218	7.71032	8.81301
117	1	3.69365	2.88603	4.70635
118	1	7.97898	3.09144	11.02903
119	1	2.79719	2.82288	3.00716
120	1	3.84525	5.42567	3.11571
121	1	11.6611	6.50895	3.82453
122	1	7.64607	6.97744	2.2143
123	1	9.56382	6.33274	3.19012
124	1	2.48814	11.04068	3.70553
125	1	7.86269	6.71407	8.44095
126	1	5.43236	0.15699	6.50207
127	1	0.02799	11.63744	1.56867
128	1	0.2984	1.71103	5.21574
129	1	3.39456	1.38494	4.67124
130	1	10.42191	8.99203	9.66027
131	1	2.13156	6.19222	4.53361
132	1	5.8681	4.04681	3.50555
133	1	8.88356	9.17211	0.35685
134	1	2.48761	9.17958	7.05941
135	1	0.03115	6.56301	8.36698
136	1	11.43699	11.43872	7.94972
137	1	5.19347	8.96132	1.36029
138	1	4.42921	8.13622	3.52001
139	1	10.49852	9.64533	5.14363
140	1	7.37472	4.96407	1.10621
141	1	10.70411	1.62261	6.31406
142	1	10.8847	3.3155	6.53359
143	1	4.38069	8.68479	4.89449
144	1	2.13307	9.45355	9.52465
145	1	11.25692	0.66	2.91691
146	1	4.21817	5.48269	9.33429
147	1	4.2812	10.48113	8.08724
148	1	1.41838	10.77726	6.04109
149	1	5.01085	11.39895	2.58921
150	1	6.98816	4.45796	4.61563
151	1	5.3755	4.8395	0.7379
152	1	11.26677	9.43747	3.78838
153	1	11.09945	7.02936	0.2169
154	1	3.55791	0.5612	0.52843
155	1	6.33353	1.08244	8.91275
156	1	10.68364	6.77323	7.55969
157	1	2.45534	5.87431	0.92855
158	1	0.70568	5.27177	8.42743
159	1	7.15107	8.94787	3.7329
160	1	6.21662	8.49521	4.62833
161	1	1.02955	8.40321	11.554
162	1	4.96003	10.80602	1.32509
163	1	2.05771	7.04811	2.21086
164	1	7.24656	2.06821	4.90379
165	1	9.07339	10.17304	5.45417
166	1	2.31349	9.66435	3.58602
167	1	7.46553	8.15399	8.47447
168	1	9.8936	5.86342	5.82036
169	1	0.70873	4.58564	11.59021
170	1	3.12494	0.51564	6.88562
171	1	9.55617	4.20405	4.89197
172	1	6.25455	3.20504	4.68387
173	1	4.22515	8.40811	7.86719
174	1	0.04941	4.86111	6.42859
175	1	10.95854	6.04063	1.06365
176	1	6.11779	8.66676	10.72489
177	1	8.21782	3.77142	4.97799
178	1	6.64049	6.45457	0.81973
179	1	5.55498	6.37353	9.25289
180	1	3.50223	8.66995	1.18098
181	1	2.00961	4.71389	1.21778
182	1	11.30824	4.53617	0.94233
183	1	3.74853	4.35493	10.03231
184	1	1.0802	9.08752	3.89076
185	1	0.0837	6.03972	9.6128
186	1	1.56646	6.65205	11.36114
187	1	3.79085	10.9045	0.55673
188	1	10.35959	9.25404	2.5046
189	1	4.19272	11.41366	7.17947
190	1	0.92731	0.8346	0.26061
191	1	11.62908	11.64511	9.47569
192	1	9.66277	1.48797	10.51968
193	1	11.31639	4.23656	9.6231
194	1	10.96639	5.93664	6.66502
195	1	1.20316	2.58014	3.21532
196	1	3.41172	1.66635	2.21771
197	1	4.67971	2.68963	5.8098
198	1	8.45138	2.17983	4.55709
199	1	3.58262	9.20591	8.56072
200	1	9.05623	0.06871	7.29299
