LAMMPS (29 Oct 2020)
Reading data file ...
  triclinic box = (0.0000000 0.0000000 0.0000000) to (13.061980 13.061980 13.061980) with tilt (0.0000000 0.0000000 0.0000000)
  4 by 2 by 7 MPI processor grid
  reading atoms ...
  216 atoms
  reading velocities ...
  216 velocities
  read_data CPU = 0.006 seconds
chimesFF: 
chimesFF: 01000011011010001001001010011010100010101010011 0100010101101110110011101101001011011101100101  
chimesFF: 
chimesFF:       _____  _      _____  __  __  ______   _____   ______                _                      
chimesFF:      / ____|| |    |_   _||  \/  ||  ____| / ____| |  ____|              (_)                    
chimesFF:     | |     | |__    | |  | \  / || |__   | (___   | |__    _ __    __ _  _  _ __    ___        
chimesFF:     | |     | '_ \   | |  | |\/| ||  __|   \___ \  |  __|  | '_ \  / _` || || '_ \  / _ \ 
chimesFF:     | |____ | | | | _| |_ | |  | || |____  ____) | | |____ | | | || (_| || || | | ||  __/        
chimesFF:      \_____||_| |_||_____||_|  |_||______||_____/  |______||_| |_| \__, ||_||_| |_| \___|     
chimesFF:                                                                     __/ |                        
chimesFF:                                                                    |___/                         
chimesFF: 
chimesFF:                      Copyright (C) 2020 R.K. Lindsey, L.E. Fried, N. Goldman                     
chimesFF: 
chimesFF: 01000011011010001001001010011010100010101010011 0100010101101110110011101101001011011101100101   
chimesFF: 

************************* WARNING (pair_style chimesFF) ************************
Assuming n-body interactions have longer cutoffs than all (n+1)-body interactions
************************* WARNING (pair_style chimesFF) ************************

chimesFF: Reading parameters from file: params.txt.reduced
chimesFF: Using respective 2, 3, and 4-body orders of: 20 10 3
chimesFF: Note: Ignoring polynomial domain; assuming [-1,1]
chimesFF: Will consider 2 atom types:
chimesFF: 	0 C
chimesFF: 	1 Si
chimesFF: Will consider 3 atom pair types
chimesFF: Detected version 2 pair specification (no S_DELTA)
chimesFF: 	0 C C
chimesFF: 	1 Si Si
chimesFF: 	2 C Si
chimesFF: Read the following pair type information:
chimesFF: 	C C r_cut_in: 0.98000 r_cut_out: 5.00000 MORSE 1.55000
chimesFF: 	Si Si r_cut_in: 1.55000 r_cut_out: 6.00000 MORSE 2.33000
chimesFF: 	C Si r_cut_in: 1.26000 r_cut_out: 5.50000 MORSE 1.90000
chimesFF: Will use cutoff style TERSOFF
 0.75000
chimesFF: Will use single atom energy offsets: 
chimesFF: 	1 C -79.12004
chimesFF: 	2 Si -94.74612
chimesFF: Read 2B parameters for pair: 0 C C
chimesFF: 	0 -1.09635
chimesFF: 	1 70.75095
chimesFF: 	2 53.91732
chimesFF: 	3 54.12522
chimesFF: 	4 1.18747
chimesFF: 	5 13.39968
chimesFF: 	6 -1.78153
chimesFF: 	7 4.05284
chimesFF: 	8 -7.74151
chimesFF: 	9 2.15299
chimesFF: 	10 -2.74299
chimesFF: 	11 1.56562
chimesFF: 	12 -1.53268
chimesFF: 	13 0.91371
chimesFF: 	14 -0.61527
chimesFF: 	15 0.67320
chimesFF: 	16 -0.23402
chimesFF: 	17 0.34917
chimesFF: 	18 -0.09043
chimesFF: 	19 0.13834
chimesFF: Read 2B parameters for pair: 1 Si Si
chimesFF: 	0 35.87187
chimesFF: 	1 -11.72029
chimesFF: 	2 4.38349
chimesFF: 	3 -38.63741
chimesFF: 	4 -12.85965
chimesFF: 	5 -36.78771
chimesFF: 	6 -5.45269
chimesFF: 	7 -19.70435
chimesFF: 	8 0.00000
chimesFF: 	9 -10.66412
chimesFF: 	10 2.43765
chimesFF: 	11 -5.58379
chimesFF: 	12 2.00442
chimesFF: 	13 -3.42162
chimesFF: 	14 1.06637
chimesFF: 	15 -1.56107
chimesFF: 	16 0.34843
chimesFF: 	17 -0.39915
chimesFF: 	18 0.06570
chimesFF: 	19 -0.02622
chimesFF: Read 2B parameters for pair: 2 C Si
chimesFF: 	0 13.10215
chimesFF: 	1 25.22793
chimesFF: 	2 30.24501
chimesFF: 	3 4.68302
chimesFF: 	4 0.11489
chimesFF: 	5 -9.04293
chimesFF: 	6 -0.39512
chimesFF: 	7 -1.51834
chimesFF: 	8 -2.37564
chimesFF: 	9 -0.81312
chimesFF: 	10 0.78741
chimesFF: 	11 -0.92500
chimesFF: 	12 0.74965
chimesFF: 	13 -0.45301
chimesFF: 	14 0.39452
chimesFF: 	15 -0.23694
chimesFF: 	16 0.19417
chimesFF: 	17 -0.05219
chimesFF: 	18 0.04992
chimesFF: 	19 0.00838
chimesFF: Built the following 2-body pair "slow" map:
chimesFF: 	0 CC(i: 0)
chimesFF: 	2 CSi(i: 1)
chimesFF: 	2 SiC(i: 2)
chimesFF: 	1 SiSi(i: 3)
chimesFF: Built the following 2-body pair "fast" map:
chimesFF: 	CC: 0 0
chimesFF: 	CSi: 1 2
chimesFF: 	SiC: 2 2
chimesFF: 	SiSi: 3 1
chimesFF: Read 3B parameters for triplet: 0 C C C
chimesFF: 	0 1 1 3.47456
chimesFF: 	1 0 1 3.47456
chimesFF: 	1 1 0 3.47456
chimesFF: 	0 1 2 -35.00856
chimesFF: 	1 0 2 -35.00856
chimesFF: 	0 2 1 -35.00856
chimesFF: 	2 0 1 -35.00856
chimesFF: 	1 2 0 -35.00856
chimesFF: 	2 1 0 -35.00856
chimesFF: 	0 1 3 -24.39337
chimesFF: 	1 0 3 -24.39337
chimesFF: 	0 3 1 -24.39337
chimesFF: 	3 0 1 -24.39337
chimesFF: 	1 3 0 -24.39337
chimesFF: 	3 1 0 -24.39337
chimesFF: 	0 1 4 -25.03916
chimesFF: 	1 0 4 -25.03916
chimesFF: 	0 4 1 -25.03916
chimesFF: 	4 0 1 -25.03916
chimesFF: 	1 4 0 -25.03916
chimesFF: 	4 1 0 -25.03916
chimesFF: 	0 1 6 -7.62985
chimesFF: 	1 0 6 -7.62985
chimesFF: 	0 6 1 -7.62985
chimesFF: 	6 0 1 -7.62985
chimesFF: 	1 6 0 -7.62985
chimesFF: 	6 1 0 -7.62985
chimesFF: 	0 1 7 -2.78664
chimesFF: 	1 0 7 -2.78664
chimesFF: 	0 7 1 -2.78664
chimesFF: 	7 0 1 -2.78664
chimesFF: 	1 7 0 -2.78664
chimesFF: 	7 1 0 -2.78664
chimesFF: 	0 1 8 -3.47156
chimesFF: 	1 0 8 -3.47156
chimesFF: 	0 8 1 -3.47156
chimesFF: 	8 0 1 -3.47156
chimesFF: 	1 8 0 -3.47156
chimesFF: 	8 1 0 -3.47156
chimesFF: 	0 1 9 -1.81994
chimesFF: 	1 0 9 -1.81994
chimesFF: 	0 9 1 -1.81994
chimesFF: 	9 0 1 -1.81994
chimesFF: 	1 9 0 -1.81994
chimesFF: 	9 1 0 -1.81994
chimesFF: 	0 2 2 8.71326
chimesFF: 	2 0 2 8.71326
chimesFF: 	2 2 0 8.71326
chimesFF: 	0 2 3 -9.97828
chimesFF: 	2 0 3 -9.97828
chimesFF: 	0 3 2 -9.97828
chimesFF: 	3 0 2 -9.97828
chimesFF: 	2 3 0 -9.97828
chimesFF: 	3 2 0 -9.97828
chimesFF: 	0 2 4 5.09118
chimesFF: 	2 0 4 5.09118
chimesFF: 	0 4 2 5.09118
chimesFF: 	4 0 2 5.09118
chimesFF: 	2 4 0 5.09118
chimesFF: 	4 2 0 5.09118
chimesFF: 	0 2 5 -29.39336
chimesFF: 	2 0 5 -29.39336
chimesFF: 	0 5 2 -29.39336
chimesFF: 	5 0 2 -29.39336
chimesFF: 	2 5 0 -29.39336
chimesFF: 	5 2 0 -29.39336
chimesFF: 	0 2 6 3.26749
chimesFF: 	2 0 6 3.26749
chimesFF: 	0 6 2 3.26749
chimesFF: 	6 0 2 3.26749
chimesFF: 	2 6 0 3.26749
chimesFF: 	6 2 0 3.26749
chimesFF: 	0 2 7 0.36307
chimesFF: 	2 0 7 0.36307
chimesFF: 	0 7 2 0.36307
chimesFF: 	7 0 2 0.36307
chimesFF: 	2 7 0 0.36307
chimesFF: 	7 2 0 0.36307
chimesFF: 	0 2 8 2.86839
chimesFF: 	2 0 8 2.86839
chimesFF: 	0 8 2 2.86839
chimesFF: 	8 0 2 2.86839
chimesFF: 	2 8 0 2.86839
chimesFF: 	8 2 0 2.86839
chimesFF: 	0 2 9 -3.01313
chimesFF: 	2 0 9 -3.01313
chimesFF: 	0 9 2 -3.01313
chimesFF: 	9 0 2 -3.01313
chimesFF: 	2 9 0 -3.01313
chimesFF: 	9 2 0 -3.01313
chimesFF: 	0 3 3 -7.34835
chimesFF: 	3 0 3 -7.34835
chimesFF: 	3 3 0 -7.34835
chimesFF: 	0 3 4 2.93784
chimesFF: 	3 0 4 2.93784
chimesFF: 	0 4 3 2.93784
chimesFF: 	4 0 3 2.93784
chimesFF: 	3 4 0 2.93784
chimesFF: 	4 3 0 2.93784
chimesFF: 	0 3 5 -16.70220
chimesFF: 	3 0 5 -16.70220
chimesFF: 	0 5 3 -16.70220
chimesFF: 	5 0 3 -16.70220
chimesFF: 	3 5 0 -16.70220
chimesFF: 	5 3 0 -16.70220
chimesFF: 	0 3 7 -2.89080
chimesFF: 	3 0 7 -2.89080
chimesFF: 	0 7 3 -2.89080
chimesFF: 	7 0 3 -2.89080
chimesFF: 	3 7 0 -2.89080
chimesFF: 	7 3 0 -2.89080
chimesFF: 	0 3 9 -4.39428
chimesFF: 	3 0 9 -4.39428
chimesFF: 	0 9 3 -4.39428
chimesFF: 	9 0 3 -4.39428
chimesFF: 	3 9 0 -4.39428
chimesFF: 	9 3 0 -4.39428
chimesFF: 	0 4 4 -6.17803
chimesFF: 	4 0 4 -6.17803
chimesFF: 	4 4 0 -6.17803
chimesFF: 	0 4 5 -25.80032
chimesFF: 	4 0 5 -25.80032
chimesFF: 	0 5 4 -25.80032
chimesFF: 	5 0 4 -25.80032
chimesFF: 	4 5 0 -25.80032
chimesFF: 	5 4 0 -25.80032
chimesFF: 	0 4 6 -0.96103
chimesFF: 	4 0 6 -0.96103
chimesFF: 	0 6 4 -0.96103
chimesFF: 	6 0 4 -0.96103
chimesFF: 	4 6 0 -0.96103
chimesFF: 	6 4 0 -0.96103
chimesFF: 	0 4 7 12.55718
chimesFF: 	4 0 7 12.55718
chimesFF: 	0 7 4 12.55718
chimesFF: 	7 0 4 12.55718
chimesFF: 	4 7 0 12.55718
chimesFF: 	7 4 0 12.55718
chimesFF: 	0 4 8 5.86400
chimesFF: 	4 0 8 5.86400
chimesFF: 	0 8 4 5.86400
chimesFF: 	8 0 4 5.86400
chimesFF: 	4 8 0 5.86400
chimesFF: 	8 4 0 5.86400
chimesFF: 	0 5 5 -3.45985
chimesFF: 	5 0 5 -3.45985
chimesFF: 	5 5 0 -3.45985
chimesFF: 	0 5 6 -5.16549
chimesFF: 	5 0 6 -5.16549
chimesFF: 	0 6 5 -5.16549
chimesFF: 	6 0 5 -5.16549
chimesFF: 	5 6 0 -5.16549
chimesFF: 	6 5 0 -5.16549
chimesFF: 	0 5 7 4.09678
chimesFF: 	5 0 7 4.09678
chimesFF: 	0 7 5 4.09678
chimesFF: 	7 0 5 4.09678
chimesFF: 	5 7 0 4.09678
chimesFF: 	7 5 0 4.09678
chimesFF: 	0 5 8 -2.90743
chimesFF: 	5 0 8 -2.90743
chimesFF: 	0 8 5 -2.90743
chimesFF: 	8 0 5 -2.90743
chimesFF: 	5 8 0 -2.90743
chimesFF: 	8 5 0 -2.90743
chimesFF: 	0 5 9 -2.14039
chimesFF: 	5 0 9 -2.14039
chimesFF: 	0 9 5 -2.14039
chimesFF: 	9 0 5 -2.14039
chimesFF: 	5 9 0 -2.14039
chimesFF: 	9 5 0 -2.14039
chimesFF: 	0 6 6 4.08444
chimesFF: 	6 0 6 4.08444
chimesFF: 	6 6 0 4.08444
chimesFF: 	0 6 7 10.14930
chimesFF: 	6 0 7 10.14930
chimesFF: 	0 7 6 10.14930
chimesFF: 	7 0 6 10.14930
chimesFF: 	6 7 0 10.14930
chimesFF: 	7 6 0 10.14930
chimesFF: 	0 6 8 2.71281
chimesFF: 	6 0 8 2.71281
chimesFF: 	0 8 6 2.71281
chimesFF: 	8 0 6 2.71281
chimesFF: 	6 8 0 2.71281
chimesFF: 	8 6 0 2.71281
chimesFF: 	0 6 9 1.72727
chimesFF: 	6 0 9 1.72727
chimesFF: 	0 9 6 1.72727
chimesFF: 	9 0 6 1.72727
chimesFF: 	6 9 0 1.72727
chimesFF: 	9 6 0 1.72727
chimesFF: 	0 7 7 -0.33090
chimesFF: 	7 0 7 -0.33090
chimesFF: 	7 7 0 -0.33090
chimesFF: 	0 7 8 0.89564
chimesFF: 	7 0 8 0.89564
chimesFF: 	0 8 7 0.89564
chimesFF: 	8 0 7 0.89564
chimesFF: 	7 8 0 0.89564
chimesFF: 	8 7 0 0.89564
chimesFF: 	0 7 9 -1.41612
chimesFF: 	7 0 9 -1.41612
chimesFF: 	0 9 7 -1.41612
chimesFF: 	9 0 7 -1.41612
chimesFF: 	7 9 0 -1.41612
chimesFF: 	9 7 0 -1.41612
chimesFF: 	0 8 8 1.38193
chimesFF: 	8 0 8 1.38193
chimesFF: 	8 8 0 1.38193
chimesFF: 	0 8 9 0.36722
chimesFF: 	8 0 9 0.36722
chimesFF: 	0 9 8 0.36722
chimesFF: 	9 0 8 0.36722
chimesFF: 	8 9 0 0.36722
chimesFF: 	9 8 0 0.36722
chimesFF: 	0 9 9 -0.48188
chimesFF: 	9 0 9 -0.48188
chimesFF: 	9 9 0 -0.48188
chimesFF: 	1 1 1 86.65023
chimesFF: 	1 1 2 -4.80892
chimesFF: 	1 2 1 -4.80892
chimesFF: 	2 1 1 -4.80892
chimesFF: 	1 1 5 44.70332
chimesFF: 	1 5 1 44.70332
chimesFF: 	5 1 1 44.70332
chimesFF: 	1 1 6 -9.02403
chimesFF: 	1 6 1 -9.02403
chimesFF: 	6 1 1 -9.02403
chimesFF: 	1 1 8 6.52041
chimesFF: 	1 8 1 6.52041
chimesFF: 	8 1 1 6.52041
chimesFF: 	1 1 9 5.78949
chimesFF: 	1 9 1 5.78949
chimesFF: 	9 1 1 5.78949
chimesFF: 	1 2 2 -25.19691
chimesFF: 	2 1 2 -25.19691
chimesFF: 	2 2 1 -25.19691
chimesFF: 	1 2 3 6.51291
chimesFF: 	2 1 3 6.51291
chimesFF: 	1 3 2 6.51291
chimesFF: 	3 1 2 6.51291
chimesFF: 	2 3 1 6.51291
chimesFF: 	3 2 1 6.51291
chimesFF: 	1 2 4 -30.25295
chimesFF: 	2 1 4 -30.25295
chimesFF: 	1 4 2 -30.25295
chimesFF: 	4 1 2 -30.25295
chimesFF: 	2 4 1 -30.25295
chimesFF: 	4 2 1 -30.25295
chimesFF: 	1 2 5 27.23775
chimesFF: 	2 1 5 27.23775
chimesFF: 	1 5 2 27.23775
chimesFF: 	5 1 2 27.23775
chimesFF: 	2 5 1 27.23775
chimesFF: 	5 2 1 27.23775
chimesFF: 	1 2 6 10.98328
chimesFF: 	2 1 6 10.98328
chimesFF: 	1 6 2 10.98328
chimesFF: 	6 1 2 10.98328
chimesFF: 	2 6 1 10.98328
chimesFF: 	6 2 1 10.98328
chimesFF: 	1 2 7 3.07229
chimesFF: 	2 1 7 3.07229
chimesFF: 	1 7 2 3.07229
chimesFF: 	7 1 2 3.07229
chimesFF: 	2 7 1 3.07229
chimesFF: 	7 2 1 3.07229
chimesFF: 	1 2 8 1.61118
chimesFF: 	2 1 8 1.61118
chimesFF: 	1 8 2 1.61118
chimesFF: 	8 1 2 1.61118
chimesFF: 	2 8 1 1.61118
chimesFF: 	8 2 1 1.61118
chimesFF: 	1 2 9 6.78929
chimesFF: 	2 1 9 6.78929
chimesFF: 	1 9 2 6.78929
chimesFF: 	9 1 2 6.78929
chimesFF: 	2 9 1 6.78929
chimesFF: 	9 2 1 6.78929
chimesFF: 	1 3 3 -22.62071
chimesFF: 	3 1 3 -22.62071
chimesFF: 	3 3 1 -22.62071
chimesFF: 	1 3 5 27.50856
chimesFF: 	3 1 5 27.50856
chimesFF: 	1 5 3 27.50856
chimesFF: 	5 1 3 27.50856
chimesFF: 	3 5 1 27.50856
chimesFF: 	5 3 1 27.50856
chimesFF: 	1 3 6 -2.10340
chimesFF: 	3 1 6 -2.10340
chimesFF: 	1 6 3 -2.10340
chimesFF: 	6 1 3 -2.10340
chimesFF: 	3 6 1 -2.10340
chimesFF: 	6 3 1 -2.10340
chimesFF: 	1 3 7 -27.59940
chimesFF: 	3 1 7 -27.59940
chimesFF: 	1 7 3 -27.59940
chimesFF: 	7 1 3 -27.59940
chimesFF: 	3 7 1 -27.59940
chimesFF: 	7 3 1 -27.59940
chimesFF: 	1 3 9 2.99564
chimesFF: 	3 1 9 2.99564
chimesFF: 	1 9 3 2.99564
chimesFF: 	9 1 3 2.99564
chimesFF: 	3 9 1 2.99564
chimesFF: 	9 3 1 2.99564
chimesFF: 	1 4 4 -20.72593
chimesFF: 	4 1 4 -20.72593
chimesFF: 	4 4 1 -20.72593
chimesFF: 	1 4 5 36.11685
chimesFF: 	4 1 5 36.11685
chimesFF: 	1 5 4 36.11685
chimesFF: 	5 1 4 36.11685
chimesFF: 	4 5 1 36.11685
chimesFF: 	5 4 1 36.11685
chimesFF: 	1 4 8 -2.88362
chimesFF: 	4 1 8 -2.88362
chimesFF: 	1 8 4 -2.88362
chimesFF: 	8 1 4 -2.88362
chimesFF: 	4 8 1 -2.88362
chimesFF: 	8 4 1 -2.88362
chimesFF: 	1 4 9 6.38158
chimesFF: 	4 1 9 6.38158
chimesFF: 	1 9 4 6.38158
chimesFF: 	9 1 4 6.38158
chimesFF: 	4 9 1 6.38158
chimesFF: 	9 4 1 6.38158
chimesFF: 	1 5 5 45.31878
chimesFF: 	5 1 5 45.31878
chimesFF: 	5 5 1 45.31878
chimesFF: 	1 5 6 -8.49665
chimesFF: 	5 1 6 -8.49665
chimesFF: 	1 6 5 -8.49665
chimesFF: 	6 1 5 -8.49665
chimesFF: 	5 6 1 -8.49665
chimesFF: 	6 5 1 -8.49665
chimesFF: 	1 5 7 -8.85890
chimesFF: 	5 1 7 -8.85890
chimesFF: 	1 7 5 -8.85890
chimesFF: 	7 1 5 -8.85890
chimesFF: 	5 7 1 -8.85890
chimesFF: 	7 5 1 -8.85890
chimesFF: 	1 5 8 -2.87148
chimesFF: 	5 1 8 -2.87148
chimesFF: 	1 8 5 -2.87148
chimesFF: 	8 1 5 -2.87148
chimesFF: 	5 8 1 -2.87148
chimesFF: 	8 5 1 -2.87148
chimesFF: 	1 5 9 1.66704
chimesFF: 	5 1 9 1.66704
chimesFF: 	1 9 5 1.66704
chimesFF: 	9 1 5 1.66704
chimesFF: 	5 9 1 1.66704
chimesFF: 	9 5 1 1.66704
chimesFF: 	1 6 6 -15.55083
chimesFF: 	6 1 6 -15.55083
chimesFF: 	6 6 1 -15.55083
chimesFF: 	1 6 7 -6.32841
chimesFF: 	6 1 7 -6.32841
chimesFF: 	1 7 6 -6.32841
chimesFF: 	7 1 6 -6.32841
chimesFF: 	6 7 1 -6.32841
chimesFF: 	7 6 1 -6.32841
chimesFF: 	1 6 8 -2.85616
chimesFF: 	6 1 8 -2.85616
chimesFF: 	1 8 6 -2.85616
chimesFF: 	8 1 6 -2.85616
chimesFF: 	6 8 1 -2.85616
chimesFF: 	8 6 1 -2.85616
chimesFF: 	1 6 9 1.00822
chimesFF: 	6 1 9 1.00822
chimesFF: 	1 9 6 1.00822
chimesFF: 	9 1 6 1.00822
chimesFF: 	6 9 1 1.00822
chimesFF: 	9 6 1 1.00822
chimesFF: 	1 7 7 -6.42609
chimesFF: 	7 1 7 -6.42609
chimesFF: 	7 7 1 -6.42609
chimesFF: 	1 7 8 0.06045
chimesFF: 	7 1 8 0.06045
chimesFF: 	1 8 7 0.06045
chimesFF: 	8 1 7 0.06045
chimesFF: 	7 8 1 0.06045
chimesFF: 	8 7 1 0.06045
chimesFF: 	1 7 9 -1.72990
chimesFF: 	7 1 9 -1.72990
chimesFF: 	1 9 7 -1.72990
chimesFF: 	9 1 7 -1.72990
chimesFF: 	7 9 1 -1.72990
chimesFF: 	9 7 1 -1.72990
chimesFF: 	1 8 9 0.47557
chimesFF: 	8 1 9 0.47557
chimesFF: 	1 9 8 0.47557
chimesFF: 	9 1 8 0.47557
chimesFF: 	8 9 1 0.47557
chimesFF: 	9 8 1 0.47557
chimesFF: 	1 9 9 -1.77568
chimesFF: 	9 1 9 -1.77568
chimesFF: 	9 9 1 -1.77568
chimesFF: 	2 2 2 -40.29967
chimesFF: 	2 2 3 -7.44118
chimesFF: 	2 3 2 -7.44118
chimesFF: 	3 2 2 -7.44118
chimesFF: 	2 2 4 -18.05808
chimesFF: 	2 4 2 -18.05808
chimesFF: 	4 2 2 -18.05808
chimesFF: 	2 2 5 -58.32017
chimesFF: 	2 5 2 -58.32017
chimesFF: 	5 2 2 -58.32017
chimesFF: 	2 2 6 -8.50692
chimesFF: 	2 6 2 -8.50692
chimesFF: 	6 2 2 -8.50692
chimesFF: 	2 2 7 4.86528
chimesFF: 	2 7 2 4.86528
chimesFF: 	7 2 2 4.86528
chimesFF: 	2 2 9 -11.17068
chimesFF: 	2 9 2 -11.17068
chimesFF: 	9 2 2 -11.17068
chimesFF: 	2 3 3 30.13446
chimesFF: 	3 2 3 30.13446
chimesFF: 	3 3 2 30.13446
chimesFF: 	2 3 4 6.48922
chimesFF: 	3 2 4 6.48922
chimesFF: 	2 4 3 6.48922
chimesFF: 	4 2 3 6.48922
chimesFF: 	3 4 2 6.48922
chimesFF: 	4 3 2 6.48922
chimesFF: 	2 3 5 2.00097
chimesFF: 	3 2 5 2.00097
chimesFF: 	2 5 3 2.00097
chimesFF: 	5 2 3 2.00097
chimesFF: 	3 5 2 2.00097
chimesFF: 	5 3 2 2.00097
chimesFF: 	2 3 6 12.40430
chimesFF: 	3 2 6 12.40430
chimesFF: 	2 6 3 12.40430
chimesFF: 	6 2 3 12.40430
chimesFF: 	3 6 2 12.40430
chimesFF: 	6 3 2 12.40430
chimesFF: 	2 3 7 1.80492
chimesFF: 	3 2 7 1.80492
chimesFF: 	2 7 3 1.80492
chimesFF: 	7 2 3 1.80492
chimesFF: 	3 7 2 1.80492
chimesFF: 	7 3 2 1.80492
chimesFF: 	2 3 8 5.87785
chimesFF: 	3 2 8 5.87785
chimesFF: 	2 8 3 5.87785
chimesFF: 	8 2 3 5.87785
chimesFF: 	3 8 2 5.87785
chimesFF: 	8 3 2 5.87785
chimesFF: 	2 3 9 -0.01693
chimesFF: 	3 2 9 -0.01693
chimesFF: 	2 9 3 -0.01693
chimesFF: 	9 2 3 -0.01693
chimesFF: 	3 9 2 -0.01693
chimesFF: 	9 3 2 -0.01693
chimesFF: 	2 4 5 -47.68012
chimesFF: 	4 2 5 -47.68012
chimesFF: 	2 5 4 -47.68012
chimesFF: 	5 2 4 -47.68012
chimesFF: 	4 5 2 -47.68012
chimesFF: 	5 4 2 -47.68012
chimesFF: 	2 4 7 10.59811
chimesFF: 	4 2 7 10.59811
chimesFF: 	2 7 4 10.59811
chimesFF: 	7 2 4 10.59811
chimesFF: 	4 7 2 10.59811
chimesFF: 	7 4 2 10.59811
chimesFF: 	2 4 8 0.89658
chimesFF: 	4 2 8 0.89658
chimesFF: 	2 8 4 0.89658
chimesFF: 	8 2 4 0.89658
chimesFF: 	4 8 2 0.89658
chimesFF: 	8 4 2 0.89658
chimesFF: 	2 4 9 -7.05152
chimesFF: 	4 2 9 -7.05152
chimesFF: 	2 9 4 -7.05152
chimesFF: 	9 2 4 -7.05152
chimesFF: 	4 9 2 -7.05152
chimesFF: 	9 4 2 -7.05152
chimesFF: 	2 5 6 -5.51696
chimesFF: 	5 2 6 -5.51696
chimesFF: 	2 6 5 -5.51696
chimesFF: 	6 2 5 -5.51696
chimesFF: 	5 6 2 -5.51696
chimesFF: 	6 5 2 -5.51696
chimesFF: 	2 5 7 6.46789
chimesFF: 	5 2 7 6.46789
chimesFF: 	2 7 5 6.46789
chimesFF: 	7 2 5 6.46789
chimesFF: 	5 7 2 6.46789
chimesFF: 	7 5 2 6.46789
chimesFF: 	2 5 9 0.45982
chimesFF: 	5 2 9 0.45982
chimesFF: 	2 9 5 0.45982
chimesFF: 	9 2 5 0.45982
chimesFF: 	5 9 2 0.45982
chimesFF: 	9 5 2 0.45982
chimesFF: 	2 6 6 0.07446
chimesFF: 	6 2 6 0.07446
chimesFF: 	6 6 2 0.07446
chimesFF: 	2 6 7 8.77707
chimesFF: 	6 2 7 8.77707
chimesFF: 	2 7 6 8.77707
chimesFF: 	7 2 6 8.77707
chimesFF: 	6 7 2 8.77707
chimesFF: 	7 6 2 8.77707
chimesFF: 	2 6 8 -3.96496
chimesFF: 	6 2 8 -3.96496
chimesFF: 	2 8 6 -3.96496
chimesFF: 	8 2 6 -3.96496
chimesFF: 	6 8 2 -3.96496
chimesFF: 	8 6 2 -3.96496
chimesFF: 	2 6 9 -0.12630
chimesFF: 	6 2 9 -0.12630
chimesFF: 	2 9 6 -0.12630
chimesFF: 	9 2 6 -0.12630
chimesFF: 	6 9 2 -0.12630
chimesFF: 	9 6 2 -0.12630
chimesFF: 	2 7 7 0.24796
chimesFF: 	7 2 7 0.24796
chimesFF: 	7 7 2 0.24796
chimesFF: 	2 7 8 1.51211
chimesFF: 	7 2 8 1.51211
chimesFF: 	2 8 7 1.51211
chimesFF: 	8 2 7 1.51211
chimesFF: 	7 8 2 1.51211
chimesFF: 	8 7 2 1.51211
chimesFF: 	2 7 9 -0.75212
chimesFF: 	7 2 9 -0.75212
chimesFF: 	2 9 7 -0.75212
chimesFF: 	9 2 7 -0.75212
chimesFF: 	7 9 2 -0.75212
chimesFF: 	9 7 2 -0.75212
chimesFF: 	2 8 8 -1.69787
chimesFF: 	8 2 8 -1.69787
chimesFF: 	8 8 2 -1.69787
chimesFF: 	2 8 9 0.53406
chimesFF: 	8 2 9 0.53406
chimesFF: 	2 9 8 0.53406
chimesFF: 	9 2 8 0.53406
chimesFF: 	8 9 2 0.53406
chimesFF: 	9 8 2 0.53406
chimesFF: 	2 9 9 -0.45517
chimesFF: 	9 2 9 -0.45517
chimesFF: 	9 9 2 -0.45517
chimesFF: 	3 3 3 -73.81398
chimesFF: 	3 3 4 -8.52168
chimesFF: 	3 4 3 -8.52168
chimesFF: 	4 3 3 -8.52168
chimesFF: 	3 3 5 -17.58691
chimesFF: 	3 5 3 -17.58691
chimesFF: 	5 3 3 -17.58691
chimesFF: 	3 3 6 6.21719
chimesFF: 	3 6 3 6.21719
chimesFF: 	6 3 3 6.21719
chimesFF: 	3 3 7 -35.67251
chimesFF: 	3 7 3 -35.67251
chimesFF: 	7 3 3 -35.67251
chimesFF: 	3 3 8 9.93530
chimesFF: 	3 8 3 9.93530
chimesFF: 	8 3 3 9.93530
chimesFF: 	3 3 9 4.86007
chimesFF: 	3 9 3 4.86007
chimesFF: 	9 3 3 4.86007
chimesFF: 	3 4 4 28.80056
chimesFF: 	4 3 4 28.80056
chimesFF: 	4 4 3 28.80056
chimesFF: 	3 4 6 23.66095
chimesFF: 	4 3 6 23.66095
chimesFF: 	3 6 4 23.66095
chimesFF: 	6 3 4 23.66095
chimesFF: 	4 6 3 23.66095
chimesFF: 	6 4 3 23.66095
chimesFF: 	3 4 7 -8.06568
chimesFF: 	4 3 7 -8.06568
chimesFF: 	3 7 4 -8.06568
chimesFF: 	7 3 4 -8.06568
chimesFF: 	4 7 3 -8.06568
chimesFF: 	7 4 3 -8.06568
chimesFF: 	3 4 8 3.71424
chimesFF: 	4 3 8 3.71424
chimesFF: 	3 8 4 3.71424
chimesFF: 	8 3 4 3.71424
chimesFF: 	4 8 3 3.71424
chimesFF: 	8 4 3 3.71424
chimesFF: 	3 4 9 -0.51285
chimesFF: 	4 3 9 -0.51285
chimesFF: 	3 9 4 -0.51285
chimesFF: 	9 3 4 -0.51285
chimesFF: 	4 9 3 -0.51285
chimesFF: 	9 4 3 -0.51285
chimesFF: 	3 5 6 2.31658
chimesFF: 	5 3 6 2.31658
chimesFF: 	3 6 5 2.31658
chimesFF: 	6 3 5 2.31658
chimesFF: 	5 6 3 2.31658
chimesFF: 	6 5 3 2.31658
chimesFF: 	3 5 7 -7.95827
chimesFF: 	5 3 7 -7.95827
chimesFF: 	3 7 5 -7.95827
chimesFF: 	7 3 5 -7.95827
chimesFF: 	5 7 3 -7.95827
chimesFF: 	7 5 3 -7.95827
chimesFF: 	3 5 8 10.78048
chimesFF: 	5 3 8 10.78048
chimesFF: 	3 8 5 10.78048
chimesFF: 	8 3 5 10.78048
chimesFF: 	5 8 3 10.78048
chimesFF: 	8 5 3 10.78048
chimesFF: 	3 5 9 3.42331
chimesFF: 	5 3 9 3.42331
chimesFF: 	3 9 5 3.42331
chimesFF: 	9 3 5 3.42331
chimesFF: 	5 9 3 3.42331
chimesFF: 	9 5 3 3.42331
chimesFF: 	3 6 6 6.51210
chimesFF: 	6 3 6 6.51210
chimesFF: 	6 6 3 6.51210
chimesFF: 	3 6 7 -1.71194
chimesFF: 	6 3 7 -1.71194
chimesFF: 	3 7 6 -1.71194
chimesFF: 	7 3 6 -1.71194
chimesFF: 	6 7 3 -1.71194
chimesFF: 	7 6 3 -1.71194
chimesFF: 	3 6 9 -1.38820
chimesFF: 	6 3 9 -1.38820
chimesFF: 	3 9 6 -1.38820
chimesFF: 	9 3 6 -1.38820
chimesFF: 	6 9 3 -1.38820
chimesFF: 	9 6 3 -1.38820
chimesFF: 	3 7 7 1.48201
chimesFF: 	7 3 7 1.48201
chimesFF: 	7 7 3 1.48201
chimesFF: 	3 7 8 4.41352
chimesFF: 	7 3 8 4.41352
chimesFF: 	3 8 7 4.41352
chimesFF: 	8 3 7 4.41352
chimesFF: 	7 8 3 4.41352
chimesFF: 	8 7 3 4.41352
chimesFF: 	3 7 9 -0.44911
chimesFF: 	7 3 9 -0.44911
chimesFF: 	3 9 7 -0.44911
chimesFF: 	9 3 7 -0.44911
chimesFF: 	7 9 3 -0.44911
chimesFF: 	9 7 3 -0.44911
chimesFF: 	3 8 8 -0.77696
chimesFF: 	8 3 8 -0.77696
chimesFF: 	8 8 3 -0.77696
chimesFF: 	3 8 9 0.45323
chimesFF: 	8 3 9 0.45323
chimesFF: 	3 9 8 0.45323
chimesFF: 	9 3 8 0.45323
chimesFF: 	8 9 3 0.45323
chimesFF: 	9 8 3 0.45323
chimesFF: 	3 9 9 -1.52072
chimesFF: 	9 3 9 -1.52072
chimesFF: 	9 9 3 -1.52072
chimesFF: 	4 4 4 39.79820
chimesFF: 	4 4 5 -29.22421
chimesFF: 	4 5 4 -29.22421
chimesFF: 	5 4 4 -29.22421
chimesFF: 	4 4 6 13.92957
chimesFF: 	4 6 4 13.92957
chimesFF: 	6 4 4 13.92957
chimesFF: 	4 4 7 -3.55223
chimesFF: 	4 7 4 -3.55223
chimesFF: 	7 4 4 -3.55223
chimesFF: 	4 4 8 -3.11148
chimesFF: 	4 8 4 -3.11148
chimesFF: 	8 4 4 -3.11148
chimesFF: 	4 4 9 -6.58384
chimesFF: 	4 9 4 -6.58384
chimesFF: 	9 4 4 -6.58384
chimesFF: 	4 5 5 -3.89877
chimesFF: 	5 4 5 -3.89877
chimesFF: 	5 5 4 -3.89877
chimesFF: 	4 5 6 -0.26450
chimesFF: 	5 4 6 -0.26450
chimesFF: 	4 6 5 -0.26450
chimesFF: 	6 4 5 -0.26450
chimesFF: 	5 6 4 -0.26450
chimesFF: 	6 5 4 -0.26450
chimesFF: 	4 5 7 -4.71755
chimesFF: 	5 4 7 -4.71755
chimesFF: 	4 7 5 -4.71755
chimesFF: 	7 4 5 -4.71755
chimesFF: 	5 7 4 -4.71755
chimesFF: 	7 5 4 -4.71755
chimesFF: 	4 5 8 1.02237
chimesFF: 	5 4 8 1.02237
chimesFF: 	4 8 5 1.02237
chimesFF: 	8 4 5 1.02237
chimesFF: 	5 8 4 1.02237
chimesFF: 	8 5 4 1.02237
chimesFF: 	4 5 9 -0.44943
chimesFF: 	5 4 9 -0.44943
chimesFF: 	4 9 5 -0.44943
chimesFF: 	9 4 5 -0.44943
chimesFF: 	5 9 4 -0.44943
chimesFF: 	9 5 4 -0.44943
chimesFF: 	4 6 7 -2.27484
chimesFF: 	6 4 7 -2.27484
chimesFF: 	4 7 6 -2.27484
chimesFF: 	7 4 6 -2.27484
chimesFF: 	6 7 4 -2.27484
chimesFF: 	7 6 4 -2.27484
chimesFF: 	4 6 8 -4.11549
chimesFF: 	6 4 8 -4.11549
chimesFF: 	4 8 6 -4.11549
chimesFF: 	8 4 6 -4.11549
chimesFF: 	6 8 4 -4.11549
chimesFF: 	8 6 4 -4.11549
chimesFF: 	4 6 9 -0.23176
chimesFF: 	6 4 9 -0.23176
chimesFF: 	4 9 6 -0.23176
chimesFF: 	9 4 6 -0.23176
chimesFF: 	6 9 4 -0.23176
chimesFF: 	9 6 4 -0.23176
chimesFF: 	4 7 7 -5.78361
chimesFF: 	7 4 7 -5.78361
chimesFF: 	7 7 4 -5.78361
chimesFF: 	4 7 9 -1.30158
chimesFF: 	7 4 9 -1.30158
chimesFF: 	4 9 7 -1.30158
chimesFF: 	9 4 7 -1.30158
chimesFF: 	7 9 4 -1.30158
chimesFF: 	9 7 4 -1.30158
chimesFF: 	4 8 8 -0.48738
chimesFF: 	8 4 8 -0.48738
chimesFF: 	8 8 4 -0.48738
chimesFF: 	4 8 9 0.63578
chimesFF: 	8 4 9 0.63578
chimesFF: 	4 9 8 0.63578
chimesFF: 	9 4 8 0.63578
chimesFF: 	8 9 4 0.63578
chimesFF: 	9 8 4 0.63578
chimesFF: 	4 9 9 -0.42456
chimesFF: 	9 4 9 -0.42456
chimesFF: 	9 9 4 -0.42456
chimesFF: 	5 5 6 4.99254
chimesFF: 	5 6 5 4.99254
chimesFF: 	6 5 5 4.99254
chimesFF: 	5 5 7 1.27735
chimesFF: 	5 7 5 1.27735
chimesFF: 	7 5 5 1.27735
chimesFF: 	5 5 8 9.70517
chimesFF: 	5 8 5 9.70517
chimesFF: 	8 5 5 9.70517
chimesFF: 	5 6 6 4.12805
chimesFF: 	6 5 6 4.12805
chimesFF: 	6 6 5 4.12805
chimesFF: 	5 6 7 -0.75210
chimesFF: 	6 5 7 -0.75210
chimesFF: 	5 7 6 -0.75210
chimesFF: 	7 5 6 -0.75210
chimesFF: 	6 7 5 -0.75210
chimesFF: 	7 6 5 -0.75210
chimesFF: 	5 6 8 1.81646
chimesFF: 	6 5 8 1.81646
chimesFF: 	5 8 6 1.81646
chimesFF: 	8 5 6 1.81646
chimesFF: 	6 8 5 1.81646
chimesFF: 	8 6 5 1.81646
chimesFF: 	5 6 9 -1.53654
chimesFF: 	6 5 9 -1.53654
chimesFF: 	5 9 6 -1.53654
chimesFF: 	9 5 6 -1.53654
chimesFF: 	6 9 5 -1.53654
chimesFF: 	9 6 5 -1.53654
chimesFF: 	5 7 7 2.09244
chimesFF: 	7 5 7 2.09244
chimesFF: 	7 7 5 2.09244
chimesFF: 	5 7 8 1.68889
chimesFF: 	7 5 8 1.68889
chimesFF: 	5 8 7 1.68889
chimesFF: 	8 5 7 1.68889
chimesFF: 	7 8 5 1.68889
chimesFF: 	8 7 5 1.68889
chimesFF: 	5 7 9 -1.77194
chimesFF: 	7 5 9 -1.77194
chimesFF: 	5 9 7 -1.77194
chimesFF: 	9 5 7 -1.77194
chimesFF: 	Type is excluded... skipping.
chimesFF: 	Type is excluded... skipping.
chimesFF: 	Type is excluded... skipping.
chimesFF: 	Type is excluded... skipping.
chimesFF: 	Type is excluded... skipping.
chimesFF: 	Type is excluded... skipping.
chimesFF: 	Type is excluded... skipping.
chimesFF: 	Type is excluded... skipping.
chimesFF: 	Type is excluded... skipping.
chimesFF: 	Type is excluded... skipping.
chimesFF: 	Type is excluded... skipping.
chimesFF: 	Type is excluded... skipping.
chimesFF: 	Type is excluded... skipping.
chimesFF: 	Type is excluded... skipping.
chimesFF: 	Type is excluded... skipping.
chimesFF: 	Type is excluded... skipping.
chimesFF: 	Type is excluded... skipping.
chimesFF: 	Type is excluded... skipping.
chimesFF: 	Type is excluded... skipping.
chimesFF: 	Type is excluded... skipping.
chimesFF: 	Type is excluded... skipping.
chimesFF: 	Type is excluded... skipping.
chimesFF: 	Type is excluded... skipping.
chimesFF: 	Type is excluded... skipping.
chimesFF: 	7 9 5 -1.77194
chimesFF: 	9 7 5 -1.77194
chimesFF: 	5 8 8 1.18061
chimesFF: 	8 5 8 1.18061
chimesFF: 	8 8 5 1.18061
chimesFF: 	5 8 9 -0.44091
chimesFF: 	8 5 9 -0.44091
chimesFF: 	5 9 8 -0.44091
chimesFF: 	9 5 8 -0.44091
chimesFF: 	8 9 5 -0.44091
chimesFF: 	9 8 5 -0.44091
chimesFF: 	5 9 9 -1.01291
chimesFF: 	9 5 9 -1.01291
chimesFF: 	9 9 5 -1.01291
chimesFF: 	6 6 6 -2.11978
chimesFF: 	6 6 7 -0.31120
chimesFF: 	6 7 6 -0.31120
chimesFF: 	7 6 6 -0.31120
chimesFF: 	6 6 8 1.18773
chimesFF: 	6 8 6 1.18773
chimesFF: 	8 6 6 1.18773
chimesFF: 	6 6 9 2.29690
chimesFF: 	6 9 6 2.29690
chimesFF: 	9 6 6 2.29690
chimesFF: 	6 7 7 -4.14264
chimesFF: 	7 6 7 -4.14264
chimesFF: 	7 7 6 -4.14264
chimesFF: 	6 7 8 0.71829
chimesFF: 	7 6 8 0.71829
chimesFF: 	6 8 7 0.71829
chimesFF: 	8 6 7 0.71829
chimesFF: 	7 8 6 0.71829
chimesFF: 	8 7 6 0.71829
chimesFF: 	Type is excluded... skipping.
chimesFF: 	Type is excluded... skipping.
chimesFF: 	Type is excluded... skipping.
chimesFF: 	Type is excluded... skipping.
chimesFF: 	Type is excluded... skipping.
chimesFF: 	Type is excluded... skipping.
chimesFF: 	Type is excluded... skipping.
chimesFF: 	Type is excluded... skipping.
chimesFF: 	Type is excluded... skipping.
chimesFF: 	Type is excluded... skipping.
chimesFF: 	Type is excluded... skipping.
chimesFF: 	Type is excluded... skipping.
chimesFF: 	Type is excluded... skipping.
chimesFF: 	Type is excluded... skipping.
chimesFF: 	Type is excluded... skipping.
chimesFF: 	Type is excluded... skipping.
chimesFF: 	Type is excluded... skipping.
chimesFF: 	Type is excluded... skipping.
chimesFF: 	Type is excluded... skipping.
chimesFF: 	Type is excluded... skipping.
chimesFF: 	Type is excluded... skipping.
chimesFF: 	Type is excluded... skipping.
chimesFF: 	Type is excluded... skipping.
chimesFF: 	Type is excluded... skipping.
chimesFF: 	Type is excluded... skipping.
chimesFF: 	Type is excluded... skipping.
chimesFF: 	Type is excluded... skipping.
chimesFF: 	Type is excluded... skipping.
chimesFF: 	Type is excluded... skipping.
chimesFF: 	Type is excluded... skipping.
chimesFF: 	Type is excluded... skipping.
chimesFF: 	Type is excluded... skipping.
chimesFF: 	Type is excluded... skipping.
chimesFF: 	Type is excluded... skipping.
chimesFF: 	Type is excluded... skipping.
chimesFF: 	Type is excluded... skipping.
chimesFF: 	Type is excluded... skipping.
chimesFF: 	Type is excluded... skipping.
chimesFF: 	Type is excluded... skipping.
chimesFF: 	Type is excluded... skipping.
chimesFF: 	Type is excluded... skipping.
chimesFF: 	Type is excluded... skipping.
chimesFF: 	Type is excluded... skipping.
chimesFF: 	Type is excluded... skipping.
Warning: Did not initialize pair_int_quad_map for excluded entry 7
Warning: Did not initialize pair_int_quad_map for excluded entry 11
Warning: Did not initialize pair_int_quad_map for excluded entry 13
Warning: Did not initialize pair_int_quad_map for excluded entry 14
Warning: Did not initialize pair_int_quad_map for excluded entry 15
chimesFF: 	Type is excluded... skipping.
chimesFF: 	Type is excluded... skipping.
Warning: Did not initialize pair_int_quad_map for excluded entry 7
Warning: Did not initialize pair_int_quad_map for excluded entry 11
Warning: Did not initialize pair_int_quad_map for excluded entry 13
Warning: Did not initialize pair_int_quad_map for excluded entry 14
Warning: Did not initialize pair_int_quad_map for excluded entry 15
chimesFF: 	Type is excluded... skipping.
chimesFF: 	Type is excluded... skipping.
Warning: Did not initialize pair_int_quad_map for excluded entry 7
Warning: Did not initialize pair_int_quad_map for excluded entry 11
Warning: Did not initialize pair_int_quad_map for excluded entry 13
Warning: Did not initialize pair_int_quad_map for excluded entry 14
Warning: Did not initialize pair_int_quad_map for excluded entry 15
chimesFF: 	Type is excluded... skipping.
chimesFF: 	Type is excluded... skipping.
Warning: Did not initialize pair_int_quad_map for excluded entry 7
Warning: Did not initialize pair_int_quad_map for excluded entry 11
Warning: Did not initialize pair_int_quad_map for excluded entry 13
Warning: Did not initialize pair_int_quad_map for excluded entry 14
Warning: Did not initialize pair_int_quad_map for excluded entry 15
chimesFF: 	Type is excluded... skipping.
chimesFF: 	Type is excluded... skipping.
Warning: Did not initialize pair_int_quad_map for excluded entry 7
Warning: Did not initialize pair_int_quad_map for excluded entry 11
Warning: Did not initialize pair_int_quad_map for excluded entry 13
Warning: Did not initialize pair_int_quad_map for excluded entry 14
Warning: Did not initialize pair_int_quad_map for excluded entry 15
chimesFF: 	Type is excluded... skipping.
chimesFF: 	Type is excluded... skipping.
Warning: Did not initialize pair_int_quad_map for excluded entry 7
Warning: Did not initialize pair_int_quad_map for excluded entry 11
Warning: Did not initialize pair_int_quad_map for excluded entry 13
Warning: Did not initialize pair_int_quad_map for excluded entry 14
Warning: Did not initialize pair_int_quad_map for excluded entry 15
chimesFF: 	Type is excluded... skipping.
chimesFF: 	Type is excluded... skipping.
Warning: Did not initialize pair_int_quad_map for excluded entry 7
Warning: Did not initialize pair_int_quad_map for excluded entry 11
Warning: Did not initialize pair_int_quad_map for excluded entry 13
Warning: Did not initialize pair_int_quad_map for excluded entry 14
Warning: Did not initialize pair_int_quad_map for excluded entry 15
chimesFF: 	Type is excluded... skipping.
chimesFF: 	Type is excluded... skipping.
Warning: Did not initialize pair_int_quad_map for excluded entry 7
Warning: Did not initialize pair_int_quad_map for excluded entry 11
Warning: Did not initialize pair_int_quad_map for excluded entry 13
Warning: Did not initialize pair_int_quad_map for excluded entry 14
Warning: Did not initialize pair_int_quad_map for excluded entry 15
chimesFF: 	Type is excluded... skipping.
chimesFF: 	Type is excluded... skipping.
Warning: Did not initialize pair_int_quad_map for excluded entry 7
Warning: Did not initialize pair_int_quad_map for excluded entry 11
Warning: Did not initialize pair_int_quad_map for excluded entry 13
Warning: Did not initialize pair_int_quad_map for excluded entry 14
Warning: Did not initialize pair_int_quad_map for excluded entry 15
chimesFF: 	Type is excluded... skipping.
chimesFF: 	Type is excluded... skipping.
Warning: Did not initialize pair_int_quad_map for excluded entry 7
Warning: Did not initialize pair_int_quad_map for excluded entry 11
Warning: Did not initialize pair_int_quad_map for excluded entry 13
Warning: Did not initialize pair_int_quad_map for excluded entry 14
Warning: Did not initialize pair_int_quad_map for excluded entry 15
chimesFF: 	Type is excluded... skipping.
chimesFF: 	Type is excluded... skipping.
Warning: Did not initialize pair_int_quad_map for excluded entry 7
Warning: Did not initialize pair_int_quad_map for excluded entry 11
Warning: Did not initialize pair_int_quad_map for excluded entry 13
Warning: Did not initialize pair_int_quad_map for excluded entry 14
Warning: Did not initialize pair_int_quad_map for excluded entry 15
chimesFF: 	Type is excluded... skipping.
chimesFF: 	Type is excluded... skipping.
Warning: Did not initialize pair_int_quad_map for excluded entry 7
Warning: Did not initialize pair_int_quad_map for excluded entry 11
Warning: Did not initialize pair_int_quad_map for excluded entry 13
Warning: Did not initialize pair_int_quad_map for excluded entry 14
Warning: Did not initialize pair_int_quad_map for excluded entry 15
chimesFF: 	Type is excluded... skipping.
chimesFF: 	Type is excluded... skipping.
Warning: Did not initialize pair_int_quad_map for excluded entry 7
Warning: Did not initialize pair_int_quad_map for excluded entry 11
Warning: Did not initialize pair_int_quad_map for excluded entry 13
Warning: Did not initialize pair_int_quad_map for excluded entry 14
Warning: Did not initialize pair_int_quad_map for excluded entry 15
chimesFF: 	Type is excluded... skipping.
chimesFF: 	Type is excluded... skipping.
Warning: Did not initialize pair_int_quad_map for excluded entry 7
Warning: Did not initialize pair_int_quad_map for excluded entry 11
Warning: Did not initialize pair_int_quad_map for excluded entry 13
Warning: Did not initialize pair_int_quad_map for excluded entry 14
Warning: Did not initialize pair_int_quad_map for excluded entry 15
chimesFF: 	Type is excluded... skipping.
chimesFF: 	Type is excluded... skipping.
Warning: Did not initialize pair_int_quad_map for excluded entry 7
Warning: Did not initialize pair_int_quad_map for excluded entry 11
Warning: Did not initialize pair_int_quad_map for excluded entry 13
Warning: Did not initialize pair_int_quad_map for excluded entry 14
Warning: Did not initialize pair_int_quad_map for excluded entry 15
chimesFF: 	Type is excluded... skipping.
chimesFF: 	Type is excluded... skipping.
Warning: Did not initialize pair_int_quad_map for excluded entry 7
Warning: Did not initialize pair_int_quad_map for excluded entry 11
Warning: Did not initialize pair_int_quad_map for excluded entry 13
Warning: Did not initialize pair_int_quad_map for excluded entry 14
Warning: Did not initialize pair_int_quad_map for excluded entry 15
chimesFF: 	Type is excluded... skipping.
chimesFF: 	Type is excluded... skipping.
Warning: Did not initialize pair_int_quad_map for excluded entry 7
Warning: Did not initialize pair_int_quad_map for excluded entry 11
Warning: Did not initialize pair_int_quad_map for excluded entry 13
Warning: Did not initialize pair_int_quad_map for excluded entry 14
Warning: Did not initialize pair_int_quad_map for excluded entry 15
chimesFF: 	Type is excluded... skipping.
chimesFF: 	Type is excluded... skipping.
Warning: Did not initialize pair_int_quad_map for excluded entry 7
Warning: Did not initialize pair_int_quad_map for excluded entry 11
Warning: Did not initialize pair_int_quad_map for excluded entry 13
Warning: Did not initialize pair_int_quad_map for excluded entry 14
Warning: Did not initialize pair_int_quad_map for excluded entry 15
chimesFF: 	Type is excluded... skipping.
chimesFF: 	Type is excluded... skipping.
Warning: Did not initialize pair_int_quad_map for excluded entry 7
Warning: Did not initialize pair_int_quad_map for excluded entry 11
Warning: Did not initialize pair_int_quad_map for excluded entry 13
Warning: Did not initialize pair_int_quad_map for excluded entry 14
Warning: Did not initialize pair_int_quad_map for excluded entry 15
chimesFF: 	Type is excluded... skipping.
chimesFF: 	Type is excluded... skipping.
Warning: Did not initialize pair_int_quad_map for excluded entry 7
Warning: Did not initialize pair_int_quad_map for excluded entry 11
Warning: Did not initialize pair_int_quad_map for excluded entry 13
Warning: Did not initialize pair_int_quad_map for excluded entry 14
Warning: Did not initialize pair_int_quad_map for excluded entry 15
chimesFF: 	6 7 9 -1.78414
chimesFF: 	7 6 9 -1.78414
chimesFF: 	6 9 7 -1.78414
chimesFF: 	9 6 7 -1.78414
chimesFF: 	7 9 6 -1.78414
chimesFF: 	9 7 6 -1.78414
chimesFF: 	6 8 8 2.66497
chimesFF: 	8 6 8 2.66497
chimesFF: 	8 8 6 2.66497
chimesFF: 	6 8 9 0.83883
chimesFF: 	8 6 9 0.83883
chimesFF: 	6 9 8 0.83883
chimesFF: 	9 6 8 0.83883
chimesFF: 	8 9 6 0.83883
chimesFF: 	9 8 6 0.83883
chimesFF: 	6 9 9 -0.53562
chimesFF: 	9 6 9 -0.53562
chimesFF: 	9 9 6 -0.53562
chimesFF: 	7 7 8 -1.57541
chimesFF: 	7 8 7 -1.57541
chimesFF: 	8 7 7 -1.57541
chimesFF: 	7 7 9 -1.24595
chimesFF: 	7 9 7 -1.24595
chimesFF: 	9 7 7 -1.24595
chimesFF: 	7 8 8 0.69247
chimesFF: 	8 7 8 0.69247
chimesFF: 	8 8 7 0.69247
chimesFF: 	7 8 9 -0.71884
chimesFF: 	8 7 9 -0.71884
chimesFF: 	7 9 8 -0.71884
chimesFF: 	9 7 8 -0.71884
chimesFF: 	8 9 7 -0.71884
chimesFF: 	9 8 7 -0.71884
chimesFF: 	7 9 9 -0.27366
chimesFF: 	9 7 9 -0.27366
chimesFF: 	9 9 7 -0.27366
chimesFF: 	8 8 8 1.56521
chimesFF: 	8 8 9 0.25052
chimesFF: 	8 9 8 0.25052
chimesFF: 	9 8 8 0.25052
chimesFF: 	8 9 9 -0.22038
chimesFF: 	9 8 9 -0.22038
chimesFF: 	9 9 8 -0.22038
chimesFF: 	9 9 9 0.04974
chimesFF: Read 3B parameters for triplet: 1 C C Si
chimesFF: 	0 1 2 -38.97008
chimesFF: 	0 2 1 -38.97008
chimesFF: 	0 1 4 -12.36206
chimesFF: 	0 4 1 -12.36206
chimesFF: 	0 1 5 9.69714
chimesFF: 	0 5 1 9.69714
chimesFF: 	0 1 6 -6.31637
chimesFF: 	0 6 1 -6.31637
chimesFF: 	0 2 2 29.24242
chimesFF: 	0 2 4 3.42914
chimesFF: 	0 4 2 3.42914
chimesFF: 	0 2 5 -6.17172
chimesFF: 	0 5 2 -6.17172
chimesFF: 	0 2 6 1.28240
chimesFF: 	0 6 2 1.28240
chimesFF: 	0 2 8 -1.22266
chimesFF: 	0 8 2 -1.22266
chimesFF: 	0 3 4 1.09594
chimesFF: 	0 4 3 1.09594
chimesFF: 	0 3 5 0.65189
chimesFF: 	0 5 3 0.65189
chimesFF: 	0 3 8 0.79270
chimesFF: 	0 8 3 0.79270
chimesFF: 	0 3 9 -0.74556
chimesFF: 	0 9 3 -0.74556
chimesFF: 	0 4 5 -1.87519
chimesFF: 	0 5 4 -1.87519
chimesFF: 	0 4 6 1.15020
chimesFF: 	0 6 4 1.15020
chimesFF: 	0 4 8 -1.02391
chimesFF: 	0 8 4 -1.02391
chimesFF: 	0 4 9 0.47305
chimesFF: 	0 9 4 0.47305
chimesFF: 	0 5 5 1.98751
chimesFF: 	0 5 6 -2.37039
chimesFF: 	0 6 5 -2.37039
chimesFF: 	0 5 7 -1.35157
chimesFF: 	0 7 5 -1.35157
chimesFF: 	0 5 8 0.15651
chimesFF: 	0 8 5 0.15651
chimesFF: 	0 5 9 -0.73200
chimesFF: 	0 9 5 -0.73200
chimesFF: 	0 6 9 0.28806
chimesFF: 	0 9 6 0.28806
chimesFF: 	0 7 7 -0.38068
chimesFF: 	0 7 8 0.00118
chimesFF: 	0 8 7 0.00118
chimesFF: 	0 7 9 0.60079
chimesFF: 	0 9 7 0.60079
chimesFF: 	0 8 8 -0.10090
chimesFF: 	0 8 9 -0.29021
chimesFF: 	0 9 8 -0.29021
chimesFF: 	0 9 9 0.27589
chimesFF: 	1 0 1 10.72934
chimesFF: 	1 1 0 10.72934
chimesFF: 	1 0 2 3.16630
chimesFF: 	1 2 0 3.16630
chimesFF: 	1 0 3 7.64858
chimesFF: 	1 3 0 7.64858
chimesFF: 	1 0 5 2.54114
chimesFF: 	1 5 0 2.54114
chimesFF: 	1 0 6 9.90546
chimesFF: 	1 6 0 9.90546
chimesFF: 	1 0 7 -2.26285
Warning: Did not initialize pair_int_quad_map for excluded entry 7
Warning: Did not initialize pair_int_quad_map for excluded entry 11
Warning: Did not initialize pair_int_quad_map for excluded entry 13
Warning: Did not initialize pair_int_quad_map for excluded entry 14
Warning: Did not initialize pair_int_quad_map for excluded entry 15
Warning: Did not initialize pair_int_quad_map for excluded entry 7
Warning: Did not initialize pair_int_quad_map for excluded entry 11
Warning: Did not initialize pair_int_quad_map for excluded entry 13
Warning: Did not initialize pair_int_quad_map for excluded entry 14
Warning: Did not initialize pair_int_quad_map for excluded entry 15
Warning: Did not initialize pair_int_quad_map for excluded entry 7
Warning: Did not initialize pair_int_quad_map for excluded entry 11
Warning: Did not initialize pair_int_quad_map for excluded entry 13
Warning: Did not initialize pair_int_quad_map for excluded entry 14
Warning: Did not initialize pair_int_quad_map for excluded entry 15
Warning: Did not initialize pair_int_quad_map for excluded entry 7
Warning: Did not initialize pair_int_quad_map for excluded entry 11
Warning: Did not initialize pair_int_quad_map for excluded entry 13
Warning: Did not initialize pair_int_quad_map for excluded entry 14
Warning: Did not initialize pair_int_quad_map for excluded entry 15
Warning: Did not initialize pair_int_quad_map for excluded entry 7
Warning: Did not initialize pair_int_quad_map for excluded entry 11
Warning: Did not initialize pair_int_quad_map for excluded entry 13
Warning: Did not initialize pair_int_quad_map for excluded entry 14
Warning: Did not initialize pair_int_quad_map for excluded entry 15
Warning: Did not initialize pair_int_quad_map for excluded entry 7
Warning: Did not initialize pair_int_quad_map for excluded entry 11
Warning: Did not initialize pair_int_quad_map for excluded entry 13
Warning: Did not initialize pair_int_quad_map for excluded entry 14
Warning: Did not initialize pair_int_quad_map for excluded entry 15
Warning: Did not initialize pair_int_quad_map for excluded entry 7
Warning: Did not initialize pair_int_quad_map for excluded entry 11
Warning: Did not initialize pair_int_quad_map for excluded entry 13
Warning: Did not initialize pair_int_quad_map for excluded entry 14
Warning: Did not initialize pair_int_quad_map for excluded entry 15
Warning: Did not initialize pair_int_quad_map for excluded entry 7
Warning: Did not initialize pair_int_quad_map for excluded entry 11
Warning: Did not initialize pair_int_quad_map for excluded entry 13
Warning: Did not initialize pair_int_quad_map for excluded entry 14
Warning: Did not initialize pair_int_quad_map for excluded entry 15
Warning: Did not initialize pair_int_quad_map for excluded entry 7
Warning: Did not initialize pair_int_quad_map for excluded entry 11
Warning: Did not initialize pair_int_quad_map for excluded entry 13
Warning: Did not initialize pair_int_quad_map for excluded entry 14
Warning: Did not initialize pair_int_quad_map for excluded entry 15
Warning: Did not initialize pair_int_quad_map for excluded entry 7
Warning: Did not initialize pair_int_quad_map for excluded entry 11
Warning: Did not initialize pair_int_quad_map for excluded entry 13
Warning: Did not initialize pair_int_quad_map for excluded entry 14
Warning: Did not initialize pair_int_quad_map for excluded entry 15
Warning: Did not initialize pair_int_quad_map for excluded entry 7
Warning: Did not initialize pair_int_quad_map for excluded entry 11
Warning: Did not initialize pair_int_quad_map for excluded entry 13
Warning: Did not initialize pair_int_quad_map for excluded entry 14
Warning: Did not initialize pair_int_quad_map for excluded entry 15
Warning: Did not initialize pair_int_quad_map for excluded entry 7
Warning: Did not initialize pair_int_quad_map for excluded entry 11
Warning: Did not initialize pair_int_quad_map for excluded entry 13
Warning: Did not initialize pair_int_quad_map for excluded entry 14
Warning: Did not initialize pair_int_quad_map for excluded entry 15
Warning: Did not initialize pair_int_quad_map for excluded entry 7
Warning: Did not initialize pair_int_quad_map for excluded entry 11
Warning: Did not initialize pair_int_quad_map for excluded entry 13
Warning: Did not initialize pair_int_quad_map for excluded entry 14
Warning: Did not initialize pair_int_quad_map for excluded entry 15
Warning: Did not initialize pair_int_quad_map for excluded entry 7
Warning: Did not initialize pair_int_quad_map for excluded entry 11
Warning: Did not initialize pair_int_quad_map for excluded entry 13
Warning: Did not initialize pair_int_quad_map for excluded entry 14
Warning: Did not initialize pair_int_quad_map for excluded entry 15
Warning: Did not initialize pair_int_quad_map for excluded entry 7
Warning: Did not initialize pair_int_quad_map for excluded entry 11
Warning: Did not initialize pair_int_quad_map for excluded entry 13
Warning: Did not initialize pair_int_quad_map for excluded entry 14
Warning: Did not initialize pair_int_quad_map for excluded entry 15
Warning: Did not initialize pair_int_quad_map for excluded entry 7
Warning: Did not initialize pair_int_quad_map for excluded entry 11
Warning: Did not initialize pair_int_quad_map for excluded entry 13
Warning: Did not initialize pair_int_quad_map for excluded entry 14
Warning: Did not initialize pair_int_quad_map for excluded entry 15
Warning: Did not initialize pair_int_quad_map for excluded entry 7
Warning: Did not initialize pair_int_quad_map for excluded entry 11
Warning: Did not initialize pair_int_quad_map for excluded entry 13
Warning: Did not initialize pair_int_quad_map for excluded entry 14
Warning: Did not initialize pair_int_quad_map for excluded entry 15
Warning: Did not initialize pair_int_quad_map for excluded entry 7
Warning: Did not initialize pair_int_quad_map for excluded entry 11
Warning: Did not initialize pair_int_quad_map for excluded entry 13
Warning: Did not initialize pair_int_quad_map for excluded entry 14
Warning: Did not initialize pair_int_quad_map for excluded entry 15
Warning: Did not initialize pair_int_quad_map for excluded entry 7
Warning: Did not initialize pair_int_quad_map for excluded entry 11
Warning: Did not initialize pair_int_quad_map for excluded entry 13
Warning: Did not initialize pair_int_quad_map for excluded entry 14
Warning: Did not initialize pair_int_quad_map for excluded entry 15
Warning: Did not initialize pair_int_quad_map for excluded entry 7
Warning: Did not initialize pair_int_quad_map for excluded entry 11
Warning: Did not initialize pair_int_quad_map for excluded entry 13
Warning: Did not initialize pair_int_quad_map for excluded entry 14
Warning: Did not initialize pair_int_quad_map for excluded entry 15
Warning: Did not initialize pair_int_quad_map for excluded entry 7
Warning: Did not initialize pair_int_quad_map for excluded entry 11
Warning: Did not initialize pair_int_quad_map for excluded entry 13
Warning: Did not initialize pair_int_quad_map for excluded entry 14
Warning: Did not initialize pair_int_quad_map for excluded entry 15
Warning: Did not initialize pair_int_quad_map for excluded entry 7
Warning: Did not initialize pair_int_quad_map for excluded entry 11
Warning: Did not initialize pair_int_quad_map for excluded entry 13
Warning: Did not initialize pair_int_quad_map for excluded entry 14
Warning: Did not initialize pair_int_quad_map for excluded entry 15
Warning: Did not initialize pair_int_quad_map for excluded entry 7
Warning: Did not initialize pair_int_quad_map for excluded entry 11
Warning: Did not initialize pair_int_quad_map for excluded entry 13
Warning: Did not initialize pair_int_quad_map for excluded entry 14
Warning: Did not initialize pair_int_quad_map for excluded entry 15
Warning: Did not initialize pair_int_quad_map for excluded entry 7
Warning: Did not initialize pair_int_quad_map for excluded entry 11
Warning: Did not initialize pair_int_quad_map for excluded entry 13
Warning: Did not initialize pair_int_quad_map for excluded entry 14
Warning: Did not initialize pair_int_quad_map for excluded entry 15
Warning: Did not initialize pair_int_quad_map for excluded entry 7
Warning: Did not initialize pair_int_quad_map for excluded entry 11
Warning: Did not initialize pair_int_quad_map for excluded entry 13
Warning: Did not initialize pair_int_quad_map for excluded entry 14
Warning: Did not initialize pair_int_quad_map for excluded entry 15
Warning: Did not initialize pair_int_quad_map for excluded entry 7
Warning: Did not initialize pair_int_quad_map for excluded entry 11
Warning: Did not initialize pair_int_quad_map for excluded entry 13
Warning: Did not initialize pair_int_quad_map for excluded entry 14
Warning: Did not initialize pair_int_quad_map for excluded entry 15
Warning: Did not initialize pair_int_quad_map for excluded entry 7
Warning: Did not initialize pair_int_quad_map for excluded entry 11
Warning: Did not initialize pair_int_quad_map for excluded entry 13
Warning: Did not initialize pair_int_quad_map for excluded entry 14
Warning: Did not initialize pair_int_quad_map for excluded entry 15
Warning: Did not initialize pair_int_quad_map for excluded entry 7
Warning: Did not initialize pair_int_quad_map for excluded entry 11
Warning: Did not initialize pair_int_quad_map for excluded entry 13
Warning: Did not initialize pair_int_quad_map for excluded entry 14
Warning: Did not initialize pair_int_quad_map for excluded entry 15
Warning: Did not initialize pair_int_quad_map for excluded entry 7
Warning: Did not initialize pair_int_quad_map for excluded entry 11
Warning: Did not initialize pair_int_quad_map for excluded entry 13
Warning: Did not initialize pair_int_quad_map for excluded entry 14
Warning: Did not initialize pair_int_quad_map for excluded entry 15
Warning: Did not initialize pair_int_quad_map for excluded entry 7
Warning: Did not initialize pair_int_quad_map for excluded entry 11
Warning: Did not initialize pair_int_quad_map for excluded entry 13
Warning: Did not initialize pair_int_quad_map for excluded entry 14
Warning: Did not initialize pair_int_quad_map for excluded entry 15
Warning: Did not initialize pair_int_quad_map for excluded entry 7
Warning: Did not initialize pair_int_quad_map for excluded entry 11
Warning: Did not initialize pair_int_quad_map for excluded entry 13
Warning: Did not initialize pair_int_quad_map for excluded entry 14
Warning: Did not initialize pair_int_quad_map for excluded entry 15
Warning: Did not initialize pair_int_quad_map for excluded entry 7
Warning: Did not initialize pair_int_quad_map for excluded entry 11
Warning: Did not initialize pair_int_quad_map for excluded entry 13
Warning: Did not initialize pair_int_quad_map for excluded entry 14
Warning: Did not initialize pair_int_quad_map for excluded entry 15
Warning: Did not initialize pair_int_quad_map for excluded entry 7
Warning: Did not initialize pair_int_quad_map for excluded entry 11
Warning: Did not initialize pair_int_quad_map for excluded entry 13
Warning: Did not initialize pair_int_quad_map for excluded entry 14
Warning: Did not initialize pair_int_quad_map for excluded entry 15
chimesFF: 	1 7 0 -2.26285
chimesFF: 	1 0 8 -2.81431
chimesFF: 	1 8 0 -2.81431
chimesFF: 	1 0 9 1.09669
chimesFF: 	1 9 0 1.09669
chimesFF: 	1 1 1 70.06012
chimesFF: 	1 1 2 -5.46715
chimesFF: 	1 2 1 -5.46715
chimesFF: 	1 1 4 -6.58507
chimesFF: 	1 4 1 -6.58507
chimesFF: 	1 1 5 17.70808
chimesFF: 	1 5 1 17.70808
chimesFF: 	1 1 7 8.27136
chimesFF: 	1 7 1 8.27136
chimesFF: 	1 1 8 6.10100
chimesFF: 	1 8 1 6.10100
chimesFF: 	1 1 9 -2.66484
chimesFF: 	1 9 1 -2.66484
chimesFF: 	1 2 6 7.65267
chimesFF: 	1 6 2 7.65267
chimesFF: 	1 2 7 -4.39333
chimesFF: 	1 7 2 -4.39333
chimesFF: 	1 2 8 -4.25539
chimesFF: 	1 8 2 -4.25539
chimesFF: 	1 3 4 4.72110
chimesFF: 	1 4 3 4.72110
chimesFF: 	1 3 5 -2.71267
chimesFF: 	1 5 3 -2.71267
chimesFF: 	1 3 6 0.06322
chimesFF: 	1 6 3 0.06322
chimesFF: 	1 3 8 2.00418
chimesFF: 	1 8 3 2.00418
chimesFF: 	1 3 9 -2.10893
chimesFF: 	1 9 3 -2.10893
chimesFF: 	1 4 6 -2.70636
chimesFF: 	1 6 4 -2.70636
chimesFF: 	1 4 9 0.76166
chimesFF: 	1 9 4 0.76166
chimesFF: 	1 5 5 -5.33582
chimesFF: 	1 5 6 1.16082
chimesFF: 	1 6 5 1.16082
chimesFF: 	1 5 7 1.54870
chimesFF: 	1 7 5 1.54870
chimesFF: 	1 5 8 -0.04981
chimesFF: 	1 8 5 -0.04981
chimesFF: 	1 6 8 3.66336
chimesFF: 	1 8 6 3.66336
chimesFF: 	1 6 9 -0.10313
chimesFF: 	1 9 6 -0.10313
chimesFF: 	1 7 7 -1.93982
chimesFF: 	1 7 8 -0.12731
chimesFF: 	1 8 7 -0.12731
chimesFF: 	1 7 9 -0.53935
chimesFF: 	1 9 7 -0.53935
chimesFF: 	1 8 8 3.15421
chimesFF: 	1 8 9 0.24669
chimesFF: 	1 9 8 0.24669
chimesFF: 	2 0 1 -20.38452
chimesFF: 	2 1 0 -20.38452
chimesFF: 	2 0 2 8.01937
chimesFF: 	2 2 0 8.01937
chimesFF: 	2 0 3 -9.92954
chimesFF: 	2 3 0 -9.92954
chimesFF: 	2 0 4 14.40699
chimesFF: 	2 4 0 14.40699
chimesFF: 	2 0 5 -7.90036
chimesFF: 	2 5 0 -7.90036
chimesFF: 	2 0 6 -3.13775
chimesFF: 	2 6 0 -3.13775
chimesFF: 	2 0 7 0.33790
chimesFF: 	2 7 0 0.33790
chimesFF: 	2 0 8 1.18741
chimesFF: 	2 8 0 1.18741
chimesFF: 	2 0 9 -1.97340
chimesFF: 	2 9 0 -1.97340
chimesFF: 	2 1 2 -22.26266
chimesFF: 	2 2 1 -22.26266
chimesFF: 	2 1 3 3.53070
chimesFF: 	2 3 1 3.53070
chimesFF: 	2 1 6 0.81983
chimesFF: 	2 6 1 0.81983
chimesFF: 	2 1 8 -5.29765
chimesFF: 	2 8 1 -5.29765
chimesFF: 	2 1 9 4.36697
chimesFF: 	2 9 1 4.36697
chimesFF: 	2 2 2 18.79456
chimesFF: 	2 2 3 13.59181
chimesFF: 	2 3 2 13.59181
chimesFF: 	2 2 4 -1.73880
chimesFF: 	2 4 2 -1.73880
chimesFF: 	2 2 6 -10.81898
chimesFF: 	2 6 2 -10.81898
chimesFF: 	2 2 7 3.34759
chimesFF: 	2 7 2 3.34759
chimesFF: 	2 2 9 -4.14710
chimesFF: 	2 9 2 -4.14710
chimesFF: 	2 3 5 -3.71894
chimesFF: 	2 5 3 -3.71894
chimesFF: 	2 3 7 -1.77618
chimesFF: 	2 7 3 -1.77618
chimesFF: 	2 3 8 -0.58828
chimesFF: 	2 8 3 -0.58828
chimesFF: 	2 3 9 1.11824
chimesFF: 	2 9 3 1.11824
chimesFF: 	2 4 5 0.02255
chimesFF: 	2 5 4 0.02255
chimesFF: 	2 4 7 1.49710
chimesFF: 	2 7 4 1.49710
chimesFF: 	2 4 8 -0.80147
chimesFF: 	2 8 4 -0.80147
chimesFF: 	2 4 9 -2.08837
chimesFF: 	2 9 4 -2.08837
chimesFF: 	2 5 6 -3.18223
chimesFF: 	2 6 5 -3.18223
chimesFF: 	2 5 7 -2.79831
chimesFF: 	2 7 5 -2.79831
chimesFF: 	2 5 8 0.88994
chimesFF: 	2 8 5 0.88994
chimesFF: 	2 6 8 -0.22638
chimesFF: 	2 8 6 -0.22638
chimesFF: 	2 6 9 -0.55239
chimesFF: 	2 9 6 -0.55239
chimesFF: 	2 7 9 0.84648
chimesFF: 	2 9 7 0.84648
chimesFF: 	2 8 9 -0.75216
chimesFF: 	2 9 8 -0.75216
chimesFF: 	3 0 2 5.95115
chimesFF: 	3 2 0 5.95115
chimesFF: 	3 0 3 -2.46383
chimesFF: 	3 3 0 -2.46383
chimesFF: 	3 0 4 18.64662
chimesFF: 	3 4 0 18.64662
chimesFF: 	3 0 5 -9.52804
chimesFF: 	3 5 0 -9.52804
chimesFF: 	3 0 6 5.55839
chimesFF: 	3 6 0 5.55839
chimesFF: 	3 0 7 -0.25880
chimesFF: 	3 7 0 -0.25880
chimesFF: 	3 0 8 -0.04795
chimesFF: 	3 8 0 -0.04795
chimesFF: 	3 1 2 41.14016
chimesFF: 	3 2 1 41.14016
chimesFF: 	3 1 3 -14.01144
chimesFF: 	3 3 1 -14.01144
chimesFF: 	3 1 6 13.63903
chimesFF: 	3 6 1 13.63903
chimesFF: 	3 1 9 1.92024
chimesFF: 	3 9 1 1.92024
chimesFF: 	3 2 2 -27.36072
chimesFF: 	3 2 3 9.93012
chimesFF: 	3 3 2 9.93012
chimesFF: 	3 2 4 12.40808
chimesFF: 	3 4 2 12.40808
chimesFF: 	3 2 6 -2.39757
chimesFF: 	3 6 2 -2.39757
chimesFF: 	3 2 7 1.99154
chimesFF: 	3 7 2 1.99154
chimesFF: 	3 2 9 -2.48692
chimesFF: 	3 9 2 -2.48692
chimesFF: 	3 3 3 5.34495
chimesFF: 	3 3 4 -10.00422
chimesFF: 	3 4 3 -10.00422
chimesFF: 	3 3 5 3.65325
chimesFF: 	3 5 3 3.65325
chimesFF: 	3 3 6 -0.03531
chimesFF: 	3 6 3 -0.03531
chimesFF: 	3 3 7 -1.54157
chimesFF: 	3 7 3 -1.54157
chimesFF: 	3 3 8 -0.90052
chimesFF: 	3 8 3 -0.90052
chimesFF: 	3 3 9 2.72559
chimesFF: 	Type is excluded... skipping.
chimesFF: 	Type is excluded... skipping.
chimesFF: 	3 9 3 2.72559
chimesFF: 	3 4 4 20.43548
chimesFF: 	3 4 5 -8.69685
chimesFF: 	3 5 4 -8.69685
chimesFF: 	3 4 6 0.10701
chimesFF: 	3 6 4 0.10701
chimesFF: 	3 4 8 1.39856
chimesFF: 	3 8 4 1.39856
chimesFF: 	3 4 9 -2.31674
chimesFF: 	3 9 4 -2.31674
chimesFF: 	3 5 5 0.42746
chimesFF: 	3 5 7 2.53747
chimesFF: 	3 7 5 2.53747
chimesFF: 	3 5 8 -0.38765
chimesFF: 	3 8 5 -0.38765
chimesFF: 	3 5 9 2.98558
chimesFF: 	3 9 5 2.98558
chimesFF: 	3 6 6 -2.05584
chimesFF: 	3 6 7 0.49477
chimesFF: 	3 7 6 0.49477
chimesFF: 	3 6 8 1.54162
chimesFF: 	3 8 6 1.54162
chimesFF: 	3 6 9 -1.16381
chimesFF: 	3 9 6 -1.16381
chimesFF: 	3 7 7 -0.63554
chimesFF: 	3 7 9 0.08408
chimesFF: 	3 9 7 0.08408
chimesFF: 	3 8 8 2.04973
chimesFF: 	3 8 9 -0.09791
chimesFF: 	3 9 8 -0.09791
chimesFF: 	3 9 9 -0.11629
chimesFF: 	4 0 1 -6.75235
chimesFF: 	4 1 0 -6.75235
chimesFF: 	4 0 2 1.52779
chimesFF: 	4 2 0 1.52779
chimesFF: 	4 0 4 8.84036
chimesFF: 	4 4 0 8.84036
chimesFF: 	4 0 5 -5.74663
chimesFF: 	4 5 0 -5.74663
chimesFF: 	4 0 6 -7.56274
chimesFF: 	4 6 0 -7.56274
chimesFF: 	4 0 7 1.25948
chimesFF: 	4 7 0 1.25948
chimesFF: 	4 1 1 12.41977
chimesFF: 	4 1 3 0.52614
chimesFF: 	4 3 1 0.52614
chimesFF: 	4 1 6 4.79639
chimesFF: 	4 6 1 4.79639
chimesFF: 	4 1 8 -1.16400
chimesFF: 	4 8 1 -1.16400
chimesFF: 	4 1 9 1.28411
chimesFF: 	4 9 1 1.28411
chimesFF: 	4 2 3 16.94697
chimesFF: 	4 3 2 16.94697
chimesFF: 	4 2 4 -3.29945
chimesFF: 	4 4 2 -3.29945
chimesFF: 	4 2 5 -3.43387
chimesFF: 	4 5 2 -3.43387
chimesFF: 	4 2 6 -10.68868
chimesFF: 	4 6 2 -10.68868
chimesFF: 	4 2 9 -1.53939
chimesFF: 	4 9 2 -1.53939
chimesFF: 	4 3 3 -17.96896
chimesFF: 	4 3 4 1.17300
chimesFF: 	4 4 3 1.17300
chimesFF: 	4 3 5 -9.63351
chimesFF: 	4 5 3 -9.63351
chimesFF: 	4 3 6 4.48326
chimesFF: 	4 6 3 4.48326
chimesFF: 	4 3 7 -2.06080
chimesFF: 	4 7 3 -2.06080
chimesFF: 	4 3 8 2.66021
chimesFF: 	4 8 3 2.66021
chimesFF: 	4 3 9 -0.34326
Warning: Did not initialize pair_int_quad_map for excluded entry 7
Warning: Did not initialize pair_int_quad_map for excluded entry 11
Warning: Did not initialize pair_int_quad_map for excluded entry 13
Warning: Did not initialize pair_int_quad_map for excluded entry 14
Warning: Did not initialize pair_int_quad_map for excluded entry 15
chimesFF: 	4 9 3 -0.34326
chimesFF: 	4 4 4 0.69120
chimesFF: 	4 4 7 0.28859
chimesFF: 	4 7 4 0.28859
chimesFF: 	4 4 8 -1.66137
chimesFF: 	4 8 4 -1.66137
chimesFF: 	4 5 6 -0.28310
chimesFF: 	4 6 5 -0.28310
chimesFF: 	4 5 7 1.70973
chimesFF: 	4 7 5 1.70973
chimesFF: 	4 5 8 2.39951
chimesFF: 	4 8 5 2.39951
chimesFF: 	4 6 6 0.33311
chimesFF: 	4 6 7 0.11708
chimesFF: 	4 7 6 0.11708
chimesFF: 	4 6 8 -1.35142
chimesFF: 	4 8 6 -1.35142
chimesFF: 	4 6 9 0.67581
chimesFF: 	4 9 6 0.67581
chimesFF: 	4 7 7 3.81449
chimesFF: 	4 7 8 0.04372
chimesFF: 	4 8 7 0.04372
chimesFF: 	4 7 9 0.62346
chimesFF: 	4 9 7 0.62346
chimesFF: 	4 8 8 -0.62190
chimesFF: 	4 8 9 -0.31876
chimesFF: 	4 9 8 -0.31876
chimesFF: 	4 9 9 -0.37748
chimesFF: 	5 0 1 1.91924
chimesFF: 	5 1 0 1.91924
chimesFF: 	5 0 3 -2.48508
chimesFF: 	5 3 0 -2.48508
chimesFF: 	5 0 4 -4.27490
chimesFF: 	5 4 0 -4.27490
chimesFF: 	5 0 6 0.89588
chimesFF: 	5 6 0 0.89588
chimesFF: 	5 0 7 0.14033
chimesFF: 	5 7 0 0.14033
chimesFF: 	5 0 8 -1.19985
chimesFF: 	5 8 0 -1.19985
chimesFF: 	5 0 9 2.77734
chimesFF: 	5 9 0 2.77734
chimesFF: 	5 1 2 1.68901
chimesFF: 	5 2 1 1.68901
chimesFF: 	5 1 3 -4.49295
chimesFF: 	5 3 1 -4.49295
chimesFF: 	5 1 6 -2.05224
chimesFF: 	5 6 1 -2.05224
chimesFF: 	5 1 7 2.61696
chimesFF: 	5 7 1 2.61696
chimesFF: 	5 1 8 0.25129
chimesFF: 	5 8 1 0.25129
chimesFF: 	5 1 9 -0.84402
chimesFF: 	5 9 1 -0.84402
chimesFF: 	5 2 2 -7.74658
chimesFF: 	5 2 3 -6.32724
chimesFF: 	5 3 2 -6.32724
chimesFF: 	5 2 4 -0.87495
chimesFF: 	5 4 2 -0.87495
chimesFF: 	5 2 6 3.77646
chimesFF: 	5 6 2 3.77646
chimesFF: 	5 2 7 -1.94607
chimesFF: 	5 7 2 -1.94607
chimesFF: 	5 2 9 3.14962
chimesFF: 	5 9 2 3.14962
chimesFF: 	5 3 3 8.09299
chimesFF: 	5 3 4 0.24805
chimesFF: 	5 4 3 0.24805
chimesFF: 	5 3 5 -1.42767
chimesFF: 	5 5 3 -1.42767
chimesFF: 	5 3 6 -2.66143
chimesFF: 	5 6 3 -2.66143
chimesFF: 	5 3 7 -0.43633
chimesFF: 	5 7 3 -0.43633
chimesFF: 	5 3 8 0.82965
chimesFF: 	5 8 3 0.82965
chimesFF: 	5 4 4 -2.84409
chimesFF: 	5 4 5 2.67012
chimesFF: 	5 5 4 2.67012
chimesFF: 	5 4 6 -1.26052
chimesFF: 	5 6 4 -1.26052
chimesFF: 	5 4 8 -0.36813
chimesFF: 	5 8 4 -0.36813
chimesFF: 	5 4 9 1.73367
chimesFF: 	5 9 4 1.73367
chimesFF: 	5 5 5 -7.25625
chimesFF: 	5 5 6 2.34761
chimesFF: 	5 6 5 2.34761
chimesFF: 	5 5 8 0.80586
chimesFF: 	5 8 5 0.80586
chimesFF: 	5 5 9 0.32838
chimesFF: 	5 9 5 0.32838
chimesFF: 	5 6 6 -0.71137
chimesFF: 	5 6 8 0.78602
chimesFF: 	5 8 6 0.78602
chimesFF: 	5 6 9 0.70384
chimesFF: 	5 9 6 0.70384
chimesFF: 	5 7 8 -0.51024
chimesFF: 	5 8 7 -0.51024
chimesFF: 	5 7 9 -0.50608
chimesFF: 	5 9 7 -0.50608
chimesFF: 	5 8 8 1.50799
chimesFF: 	5 8 9 0.00552
chimesFF: 	5 9 8 0.00552
chimesFF: 	5 9 9 -0.39824
chimesFF: 	6 0 1 7.90635
chimesFF: 	6 1 0 7.90635
chimesFF: 	6 0 2 4.72900
chimesFF: 	6 2 0 4.72900
chimesFF: 	6 0 3 5.71826
chimesFF: 	6 3 0 5.71826
chimesFF: 	6 0 4 2.33628
chimesFF: 	6 4 0 2.33628
chimesFF: 	6 0 6 -2.72985
chimesFF: 	6 6 0 -2.72985
chimesFF: 	6 0 7 0.94645
chimesFF: 	6 7 0 0.94645
chimesFF: 	6 0 8 0.86727
chimesFF: 	6 8 0 0.86727
chimesFF: 	6 0 9 0.58631
chimesFF: 	6 9 0 0.58631
chimesFF: 	6 1 2 -0.02475
chimesFF: 	6 2 1 -0.02475
chimesFF: 	6 1 3 3.28206
chimesFF: 	6 3 1 3.28206
chimesFF: 	6 1 7 1.68729
chimesFF: 	6 7 1 1.68729
chimesFF: 	6 1 8 -1.47382
chimesFF: 	6 8 1 -1.47382
chimesFF: 	6 2 2 14.91994
chimesFF: 	6 2 3 0.87895
chimesFF: 	6 3 2 0.87895
chimesFF: 	6 2 5 -4.47395
chimesFF: 	6 5 2 -4.47395
chimesFF: 	6 2 7 -2.46169
chimesFF: 	6 7 2 -2.46169
chimesFF: 	6 2 8 2.74996
chimesFF: 	6 8 2 2.74996
chimesFF: 	6 2 9 -0.45109
chimesFF: 	6 9 2 -0.45109
chimesFF: 	6 3 3 -1.56533
chimesFF: 	6 3 4 -2.71539
chimesFF: 	6 4 3 -2.71539
chimesFF: 	6 3 7 0.65097
chimesFF: 	6 7 3 0.65097
chimesFF: 	6 3 8 0.11018
chimesFF: 	6 8 3 0.11018
chimesFF: 	6 3 9 -0.67074
chimesFF: 	6 9 3 -0.67074
chimesFF: 	6 4 5 -0.26604
chimesFF: 	6 5 4 -0.26604
chimesFF: 	6 4 6 5.40493
chimesFF: 	6 6 4 5.40493
chimesFF: 	6 4 7 -1.54226
chimesFF: 	6 7 4 -1.54226
chimesFF: 	6 4 8 2.59969
chimesFF: 	6 8 4 2.59969
chimesFF: 	6 5 5 2.61002
chimesFF: 	6 5 6 -0.24874
chimesFF: 	6 6 5 -0.24874
chimesFF: 	6 5 7 1.42688
chimesFF: 	6 7 5 1.42688
chimesFF: 	6 5 8 0.12953
chimesFF: 	6 8 5 0.12953
chimesFF: 	6 5 9 -0.20074
chimesFF: 	6 9 5 -0.20074
chimesFF: 	6 6 6 5.64232
chimesFF: 	6 6 7 -0.08508
chimesFF: 	6 7 6 -0.08508
chimesFF: 	6 6 8 1.50203
chimesFF: 	6 8 6 1.50203
chimesFF: 	6 6 9 0.40447
chimesFF: 	6 9 6 0.40447
chimesFF: 	6 7 7 1.50433
chimesFF: 	6 7 8 -0.56462
chimesFF: 	6 8 7 -0.56462
chimesFF: 	6 7 9 0.07459
chimesFF: 	6 9 7 0.07459
chimesFF: 	6 8 8 0.29058
chimesFF: 	6 8 9 -0.29264
chimesFF: 	6 9 8 -0.29264
chimesFF: 	6 9 9 -0.30800
chimesFF: 	7 0 1 -3.03639
chimesFF: 	7 1 0 -3.03639
chimesFF: 	7 0 2 8.82637
chimesFF: 	7 2 0 8.82637
chimesFF: 	7 0 3 -1.63810
chimesFF: 	7 3 0 -1.63810
chimesFF: 	7 0 4 0.23491
chimesFF: 	7 4 0 0.23491
chimesFF: 	7 0 5 1.69597
chimesFF: 	7 5 0 1.69597
chimesFF: 	7 0 6 -0.83642
chimesFF: 	7 6 0 -0.83642
chimesFF: 	7 0 7 -0.38228
chimesFF: 	7 7 0 -0.38228
chimesFF: 	7 0 8 -1.16697
chimesFF: 	7 8 0 -1.16697
chimesFF: 	7 0 9 1.81670
chimesFF: 	7 9 0 1.81670
chimesFF: 	7 1 2 -10.81553
chimesFF: 	7 2 1 -10.81553
chimesFF: 	7 1 5 -3.18089
chimesFF: 	7 5 1 -3.18089
chimesFF: 	7 1 7 2.38054
chimesFF: 	7 7 1 2.38054
chimesFF: 	7 2 2 21.19838
chimesFF: 	7 2 3 -7.53390
chimesFF: 	7 3 2 -7.53390
chimesFF: 	7 2 4 6.22460
chimesFF: 	7 4 2 6.22460
chimesFF: 	7 2 5 0.48058
chimesFF: 	7 5 2 0.48058
chimesFF: 	7 2 6 1.74534
chimesFF: 	7 6 2 1.74534
chimesFF: 	7 2 7 -1.96681
chimesFF: 	7 7 2 -1.96681
chimesFF: 	7 2 9 2.14679
chimesFF: 	7 9 2 2.14679
chimesFF: 	7 3 3 11.23167
chimesFF: 	7 3 6 -1.06787
chimesFF: 	7 6 3 -1.06787
chimesFF: 	7 3 8 0.03228
chimesFF: 	7 8 3 0.03228
chimesFF: 	7 4 4 -4.67901
chimesFF: 	7 4 5 2.89516
chimesFF: 	7 5 4 2.89516
chimesFF: 	7 4 6 -1.65000
chimesFF: 	7 6 4 -1.65000
chimesFF: 	7 4 9 1.00779
chimesFF: 	7 9 4 1.00779
chimesFF: 	7 5 5 -6.15734
chimesFF: 	7 5 6 2.02451
chimesFF: 	7 6 5 2.02451
chimesFF: 	7 5 7 -1.85136
chimesFF: 	7 7 5 -1.85136
chimesFF: 	7 5 8 0.20672
chimesFF: 	7 8 5 0.20672
chimesFF: 	7 6 7 0.17548
chimesFF: 	7 7 6 0.17548
chimesFF: 	7 6 8 0.35333
chimesFF: 	7 8 6 0.35333
chimesFF: 	7 6 9 0.31109
chimesFF: 	7 9 6 0.31109
chimesFF: 	7 7 7 -0.36726
chimesFF: 	Type is excluded... skipping.
chimesFF: 	Type is excluded... skipping.
chimesFF: 	7 7 8 -0.31925
chimesFF: 	7 8 7 -0.31925
chimesFF: 	7 7 9 -0.08863
chimesFF: 	7 9 7 -0.08863
chimesFF: 	7 8 8 0.40535
chimesFF: 	7 8 9 -0.07332
chimesFF: 	7 9 8 -0.07332
chimesFF: 	7 9 9 -0.19571
chimesFF: 	8 0 1 8.59241
chimesFF: 	8 1 0 8.59241
chimesFF: 	8 0 3 1.16437
chimesFF: 	8 3 0 1.16437
chimesFF: 	8 0 4 0.50103
chimesFF: 	8 4 0 0.50103
chimesFF: 	8 0 5 -0.06156
chimesFF: 	8 5 0 -0.06156
chimesFF: 	8 0 6 -1.13250
chimesFF: 	8 6 0 -1.13250
chimesFF: 	8 0 7 0.55145
chimesFF: 	8 7 0 0.55145
chimesFF: 	8 1 1 -8.57748
chimesFF: 	8 1 2 10.45879
chimesFF: 	8 2 1 10.45879
chimesFF: 	8 1 4 7.92904
chimesFF: 	8 4 1 7.92904
chimesFF: 	8 1 5 -2.08241
chimesFF: 	8 5 1 -2.08241
chimesFF: 	8 1 6 3.47894
chimesFF: 	8 6 1 3.47894
chimesFF: 	8 1 7 0.40436
chimesFF: 	8 7 1 0.40436
chimesFF: 	8 1 8 -0.75282
chimesFF: 	8 8 1 -0.75282
chimesFF: 	8 2 2 -0.58759
chimesFF: 	8 2 4 -3.01855
chimesFF: 	8 4 2 -3.01855
chimesFF: 	8 2 5 0.46665
chimesFF: 	8 5 2 0.46665
chimesFF: 	8 2 6 -0.96636
chimesFF: 	8 6 2 -0.96636
chimesFF: 	8 2 7 0.16359
chimesFF: 	8 7 2 0.16359
chimesFF: 	8 2 8 0.86865
chimesFF: 	8 8 2 0.86865
chimesFF: 	8 2 9 -0.60234
chimesFF: 	8 9 2 -0.60234
chimesFF: 	8 3 3 7.02333
chimesFF: 	8 3 4 -0.69734
chimesFF: 	8 4 3 -0.69734
chimesFF: 	8 3 5 3.01460
chimesFF: 	8 5 3 3.01460
chimesFF: 	8 3 6 -0.62480
chimesFF: 	8 6 3 -0.62480
chimesFF: 	8 3 7 0.45815
chimesFF: 	8 7 3 0.45815
chimesFF: 	8 3 8 -0.93175
chimesFF: 	8 8 3 -0.93175
chimesFF: 	8 3 9 -0.20166
chimesFF: 	8 9 3 -0.20166
chimesFF: 	8 4 5 1.33455
chimesFF: 	8 5 4 1.33455
chimesFF: 	8 4 6 3.65730
chimesFF: 	8 6 4 3.65730
chimesFF: 	8 4 8 1.71768
chimesFF: 	8 8 4 1.71768
chimesFF: 	8 4 9 -0.46449
chimesFF: 	8 9 4 -0.46449
chimesFF: 	8 5 7 -0.57643
chimesFF: 	8 7 5 -0.57643
chimesFF: 	8 5 8 -0.42770
chimesFF: 	8 8 5 -0.42770
chimesFF: 	8 5 9 -0.05370
chimesFF: 	8 9 5 -0.05370
chimesFF: 	8 6 6 3.84212
chimesFF: 	8 6 7 -0.05118
chimesFF: 	8 7 6 -0.05118
chimesFF: 	8 6 8 0.80137
chimesFF: 	8 8 6 0.80137
chimesFF: 	8 6 9 -0.09291
chimesFF: 	8 9 6 -0.09291
chimesFF: 	8 7 8 -0.46747
chimesFF: 	8 8 7 -0.46747
chimesFF: 	8 7 9 0.07923
chimesFF: 	8 9 7 0.07923
chimesFF: 	8 8 8 -0.03122
chimesFF: 	8 8 9 -0.19586
chimesFF: 	8 9 8 -0.19586
Warning: Did not initialize pair_int_quad_map for excluded entry 7
Warning: Did not initialize pair_int_quad_map for excluded entry 11
Warning: Did not initialize pair_int_quad_map for excluded entry 13
Warning: Did not initialize pair_int_quad_map for excluded entry 14
Warning: Did not initialize pair_int_quad_map for excluded entry 15
chimesFF: 	8 9 9 0.00120
chimesFF: 	9 0 2 1.37239
chimesFF: 	9 2 0 1.37239
chimesFF: 	9 0 3 -0.67212
chimesFF: 	9 3 0 -0.67212
chimesFF: 	9 0 4 0.03438
chimesFF: 	9 4 0 0.03438
chimesFF: 	9 0 5 0.44847
chimesFF: 	9 5 0 0.44847
chimesFF: 	9 0 6 -1.61633
chimesFF: 	9 6 0 -1.61633
chimesFF: 	9 0 7 0.25166
chimesFF: 	9 7 0 0.25166
chimesFF: 	9 0 8 -1.90460
chimesFF: 	9 8 0 -1.90460
chimesFF: 	9 0 9 0.44037
chimesFF: 	9 9 0 0.44037
chimesFF: 	9 1 2 2.56624
chimesFF: 	9 2 1 2.56624
chimesFF: 	9 1 4 2.71003
chimesFF: 	9 4 1 2.71003
chimesFF: 	9 1 5 -2.13567
chimesFF: 	9 5 1 -2.13567
chimesFF: 	9 1 6 0.61301
chimesFF: 	9 6 1 0.61301
chimesFF: 	9 1 7 0.23835
chimesFF: 	9 7 1 0.23835
chimesFF: 	9 1 8 2.83854
chimesFF: 	9 8 1 2.83854
chimesFF: 	9 1 9 -1.15038
chimesFF: 	9 9 1 -1.15038
chimesFF: 	9 2 2 4.24019
chimesFF: 	9 2 4 2.65071
chimesFF: 	9 4 2 2.65071
chimesFF: 	9 2 5 -0.03914
chimesFF: 	9 5 2 -0.03914
chimesFF: 	9 2 6 -0.18795
chimesFF: 	9 6 2 -0.18795
chimesFF: 	9 2 7 -0.50468
chimesFF: 	9 7 2 -0.50468
chimesFF: 	9 2 8 -2.20257
chimesFF: 	9 8 2 -2.20257
chimesFF: 	9 2 9 0.39341
chimesFF: 	9 9 2 0.39341
chimesFF: 	9 3 3 1.59221
chimesFF: 	9 3 5 -2.06102
chimesFF: 	9 5 3 -2.06102
chimesFF: 	9 3 6 -0.10210
chimesFF: 	9 6 3 -0.10210
chimesFF: 	9 3 7 -1.13232
chimesFF: 	9 7 3 -1.13232
chimesFF: 	9 3 8 2.27927
chimesFF: 	9 8 3 2.27927
chimesFF: 	9 3 9 -0.96493
chimesFF: 	9 9 3 -0.96493
chimesFF: 	9 4 4 0.84678
chimesFF: 	9 4 5 -0.90589
chimesFF: 	9 5 4 -0.90589
chimesFF: 	9 4 7 -0.77319
chimesFF: 	9 7 4 -0.77319
chimesFF: 	9 4 8 -1.44396
chimesFF: 	9 8 4 -1.44396
chimesFF: 	9 5 5 -1.61323
chimesFF: 	9 5 6 -0.77680
chimesFF: 	9 6 5 -0.77680
chimesFF: 	9 5 7 0.24251
chimesFF: 	9 7 5 0.24251
chimesFF: 	9 5 8 0.83636
chimesFF: 	9 8 5 0.83636
chimesFF: 	9 5 9 -0.10168
chimesFF: 	9 9 5 -0.10168
chimesFF: 	9 6 6 -0.44989
chimesFF: 	9 6 7 -0.56459
chimesFF: 	9 7 6 -0.56459
chimesFF: 	9 6 8 -0.96038
chimesFF: 	9 8 6 -0.96038
chimesFF: 	9 6 9 -0.14336
chimesFF: 	9 9 6 -0.14336
chimesFF: 	9 7 7 0.89174
chimesFF: 	9 7 8 0.17589
chimesFF: 	9 8 7 0.17589
chimesFF: 	9 7 9 0.12771
chimesFF: 	9 9 7 0.12771
chimesFF: 	9 8 8 -0.41964
chimesFF: 	9 8 9 -0.03394
chimesFF: 	9 9 8 -0.03394
chimesFF: 	9 9 9 -0.05236
chimesFF: Read 3B parameters for triplet: 2 C Si Si
chimesFF: 	0 1 2 -24.87010
chimesFF: 	1 0 2 -24.87010
chimesFF: 	0 1 4 -3.03865
chimesFF: 	1 0 4 -3.03865
chimesFF: 	0 1 5 -19.21641
chimesFF: 	1 0 5 -19.21641
chimesFF: 	0 1 8 -3.97196
chimesFF: 	1 0 8 -3.97196
chimesFF: 	0 1 9 -0.84149
chimesFF: 	1 0 9 -0.84149
chimesFF: 	0 2 1 -9.98725
chimesFF: 	2 0 1 -9.98725
chimesFF: 	0 2 2 17.57047
chimesFF: 	2 0 2 17.57047
chimesFF: 	0 2 4 3.05170
chimesFF: 	2 0 4 3.05170
chimesFF: 	0 2 5 -4.58055
chimesFF: 	2 0 5 -4.58055
chimesFF: 	0 2 6 0.10378
chimesFF: 	2 0 6 0.10378
chimesFF: 	0 2 9 -1.07170
chimesFF: 	2 0 9 -1.07170
chimesFF: 	0 3 1 -12.30536
chimesFF: 	3 0 1 -12.30536
chimesFF: 	0 3 2 6.96335
chimesFF: 	3 0 2 6.96335
chimesFF: 	0 3 3 0.77327
chimesFF: 	3 0 3 0.77327
chimesFF: 	0 3 5 -5.07486
chimesFF: 	3 0 5 -5.07486
chimesFF: 	0 3 6 1.29495
chimesFF: 	3 0 6 1.29495
chimesFF: 	0 3 7 1.50870
chimesFF: 	3 0 7 1.50870
chimesFF: 	0 3 9 -0.14772
chimesFF: 	3 0 9 -0.14772
chimesFF: 	0 4 2 0.09436
chimesFF: 	4 0 2 0.09436
chimesFF: 	0 4 3 1.13506
chimesFF: 	4 0 3 1.13506
chimesFF: 	0 4 4 0.97746
chimesFF: 	4 0 4 0.97746
chimesFF: 	0 4 5 -5.42169
chimesFF: 	4 0 5 -5.42169
chimesFF: 	0 4 8 -1.43272
chimesFF: 	4 0 8 -1.43272
chimesFF: 	0 4 9 -0.75420
chimesFF: 	4 0 9 -0.75420
chimesFF: 	0 5 1 -2.20843
chimesFF: 	5 0 1 -2.20843
chimesFF: 	0 5 3 -3.38205
chimesFF: 	5 0 3 -3.38205
chimesFF: 	0 5 4 -1.02380
chimesFF: 	5 0 4 -1.02380
chimesFF: 	0 5 5 2.71783
chimesFF: 	5 0 5 2.71783
chimesFF: 	0 5 7 0.54294
chimesFF: 	5 0 7 0.54294
chimesFF: 	0 5 8 1.05780
chimesFF: 	5 0 8 1.05780
chimesFF: 	0 5 9 -0.17581
chimesFF: 	5 0 9 -0.17581
chimesFF: 	0 6 1 -4.38415
chimesFF: 	6 0 1 -4.38415
chimesFF: 	0 6 2 -2.72788
chimesFF: 	6 0 2 -2.72788
chimesFF: 	0 6 4 2.70306
chimesFF: 	6 0 4 2.70306
chimesFF: 	0 6 5 -3.49175
chimesFF: 	6 0 5 -3.49175
chimesFF: 	0 6 6 0.10774
chimesFF: 	6 0 6 0.10774
chimesFF: 	0 6 8 -1.80154
chimesFF: 	6 0 8 -1.80154
chimesFF: 	0 6 9 1.02023
chimesFF: 	6 0 9 1.02023
chimesFF: 	0 7 1 12.73607
chimesFF: 	7 0 1 12.73607
chimesFF: 	0 7 2 8.86739
chimesFF: 	7 0 2 8.86739
chimesFF: 	0 7 3 6.64856
chimesFF: 	7 0 3 6.64856
chimesFF: 	0 7 4 3.80752
chimesFF: 	7 0 4 3.80752
chimesFF: 	0 7 5 5.02391
chimesFF: 	7 0 5 5.02391
chimesFF: 	0 7 7 3.02230
chimesFF: 	7 0 7 3.02230
chimesFF: 	0 7 8 0.47336
chimesFF: 	7 0 8 0.47336
chimesFF: 	0 7 9 0.57368
chimesFF: 	7 0 9 0.57368
chimesFF: 	0 8 1 -6.77746
chimesFF: 	8 0 1 -6.77746
chimesFF: 	0 8 2 -2.35207
chimesFF: 	8 0 2 -2.35207
chimesFF: 	0 8 3 -2.35218
chimesFF: 	8 0 3 -2.35218
chimesFF: 	0 8 4 -0.90833
chimesFF: 	8 0 4 -0.90833
chimesFF: 	0 8 5 -2.15567
chimesFF: 	8 0 5 -2.15567
chimesFF: 	0 8 6 -0.47760
chimesFF: 	8 0 6 -0.47760
chimesFF: 	0 8 8 0.22429
chimesFF: 	8 0 8 0.22429
chimesFF: 	0 8 9 -0.05679
chimesFF: 	8 0 9 -0.05679
chimesFF: 	0 9 2 3.50216
chimesFF: 	9 0 2 3.50216
chimesFF: 	0 9 3 -2.12337
chimesFF: 	9 0 3 -2.12337
chimesFF: 	0 9 4 1.13265
chimesFF: 	9 0 4 1.13265
chimesFF: 	0 9 6 0.89293
chimesFF: 	9 0 6 0.89293
chimesFF: 	0 9 8 0.58251
chimesFF: 	9 0 8 0.58251
chimesFF: 	0 9 9 -0.88658
chimesFF: 	9 0 9 -0.88658
chimesFF: 	1 1 1 38.27658
chimesFF: 	1 1 3 -16.04567
chimesFF: 	1 1 5 18.04763
chimesFF: 	1 1 6 0.98182
chimesFF: 	1 1 7 -1.25405
chimesFF: 	1 2 0 -2.30543
chimesFF: 	2 1 0 -2.30543
chimesFF: 	1 2 1 13.62221
chimesFF: 	2 1 1 13.62221
chimesFF: 	1 2 2 -26.11540
chimesFF: 	2 1 2 -26.11540
chimesFF: 	1 2 4 15.13143
chimesFF: 	2 1 4 15.13143
chimesFF: 	1 2 5 -23.14559
chimesFF: 	2 1 5 -23.14559
chimesFF: 	1 2 6 5.67825
chimesFF: 	2 1 6 5.67825
chimesFF: 	1 2 8 -6.47750
chimesFF: 	2 1 8 -6.47750
chimesFF: 	1 3 0 0.84722
chimesFF: 	3 1 0 0.84722
chimesFF: 	1 3 1 -2.23089
chimesFF: 	3 1 1 -2.23089
chimesFF: 	1 3 2 -11.44624
chimesFF: 	3 1 2 -11.44624
chimesFF: 	1 3 3 -15.12296
chimesFF: 	3 1 3 -15.12296
chimesFF: 	1 3 4 2.10754
chimesFF: 	3 1 4 2.10754
chimesFF: 	1 3 5 3.42502
chimesFF: 	3 1 5 3.42502
chimesFF: 	1 3 7 -0.41587
chimesFF: 	3 1 7 -0.41587
chimesFF: 	1 4 0 17.29040
chimesFF: 	4 1 0 17.29040
chimesFF: 	1 4 1 -8.69653
chimesFF: 	4 1 1 -8.69653
chimesFF: 	1 4 2 18.05543
chimesFF: 	4 1 2 18.05543
chimesFF: 	1 4 4 11.75918
chimesFF: 	4 1 4 11.75918
chimesFF: 	1 4 5 -2.04109
chimesFF: 	4 1 5 -2.04109
chimesFF: 	1 4 7 4.54729
chimesFF: 	4 1 7 4.54729
chimesFF: 	1 4 8 -4.14570
chimesFF: 	4 1 8 -4.14570
chimesFF: 	1 4 9 2.08700
chimesFF: 	4 1 9 2.08700
chimesFF: 	1 5 0 -1.89478
chimesFF: 	5 1 0 -1.89478
chimesFF: 	1 5 4 -3.71022
chimesFF: 	5 1 4 -3.71022
chimesFF: 	1 5 5 -3.82681
chimesFF: 	5 1 5 -3.82681
chimesFF: 	1 5 6 -0.12264
chimesFF: 	5 1 6 -0.12264
chimesFF: 	1 5 8 1.41784
chimesFF: 	5 1 8 1.41784
chimesFF: 	1 6 0 -1.99276
chimesFF: 	6 1 0 -1.99276
chimesFF: 	1 6 1 19.10181
chimesFF: 	6 1 1 19.10181
chimesFF: 	1 6 5 -2.85374
chimesFF: 	6 1 5 -2.85374
chimesFF: 	1 6 6 1.85012
chimesFF: 	6 1 6 1.85012
chimesFF: 	1 6 7 1.38122
chimesFF: 	6 1 7 1.38122
chimesFF: 	1 6 8 -0.40893
chimesFF: 	6 1 8 -0.40893
chimesFF: 	1 6 9 -0.10602
chimesFF: 	6 1 9 -0.10602
chimesFF: 	1 7 0 1.30287
chimesFF: 	7 1 0 1.30287
chimesFF: 	1 7 3 0.39558
chimesFF: 	7 1 3 0.39558
chimesFF: 	1 7 5 0.87883
chimesFF: 	7 1 5 0.87883
chimesFF: 	1 7 6 -0.33308
chimesFF: 	7 1 6 -0.33308
chimesFF: 	1 7 9 -0.90028
chimesFF: 	7 1 9 -0.90028
chimesFF: 	1 8 0 -4.97972
chimesFF: 	8 1 0 -4.97972
chimesFF: 	1 8 1 15.79235
chimesFF: 	8 1 1 15.79235
chimesFF: 	1 8 2 -3.75522
chimesFF: 	8 1 2 -3.75522
chimesFF: 	1 8 6 1.07751
chimesFF: 	8 1 6 1.07751
chimesFF: 	1 8 7 -2.40735
chimesFF: 	8 1 7 -2.40735
chimesFF: 	1 8 8 0.07811
chimesFF: 	8 1 8 0.07811
chimesFF: 	1 9 0 1.04531
chimesFF: 	9 1 0 1.04531
chimesFF: 	1 9 1 -1.70657
chimesFF: 	9 1 1 -1.70657
chimesFF: 	1 9 4 0.71075
chimesFF: 	9 1 4 0.71075
chimesFF: 	1 9 5 -1.93731
chimesFF: 	9 1 5 -1.93731
chimesFF: 	1 9 6 -1.42580
chimesFF: 	9 1 6 -1.42580
chimesFF: 	1 9 7 0.20146
chimesFF: 	9 1 7 0.20146
chimesFF: 	1 9 8 -1.37920
chimesFF: 	9 1 8 -1.37920
chimesFF: 	1 9 9 1.77989
chimesFF: 	9 1 9 1.77989
chimesFF: 	2 2 0 12.58468
chimesFF: 	2 2 1 -15.99262
chimesFF: 	2 2 2 51.89455
chimesFF: 	2 2 3 10.50068
chimesFF: 	2 2 5 -3.49229
chimesFF: 	2 2 6 -1.78598
chimesFF: 	2 2 7 4.05035
chimesFF: 	2 2 8 0.36553
chimesFF: 	2 2 9 -3.22966
chimesFF: 	2 3 1 -0.33414
chimesFF: 	3 2 1 -0.33414
chimesFF: 	2 3 3 6.64607
chimesFF: 	3 2 3 6.64607
chimesFF: 	2 3 7 0.39995
chimesFF: 	3 2 7 0.39995
chimesFF: 	2 3 8 -1.63406
chimesFF: 	3 2 8 -1.63406
chimesFF: 	2 4 0 6.77941
chimesFF: 	4 2 0 6.77941
chimesFF: 	2 4 1 0.91702
chimesFF: 	4 2 1 0.91702
chimesFF: 	2 4 2 15.47076
chimesFF: 	4 2 2 15.47076
chimesFF: 	2 4 3 6.04847
chimesFF: 	4 2 3 6.04847
chimesFF: 	2 4 4 -5.10033
chimesFF: 	4 2 4 -5.10033
chimesFF: 	2 4 5 -3.69949
chimesFF: 	4 2 5 -3.69949
chimesFF: 	2 4 6 0.65813
chimesFF: 	4 2 6 0.65813
chimesFF: 	2 4 7 3.17475
chimesFF: 	4 2 7 3.17475
chimesFF: 	2 4 8 -0.52605
chimesFF: 	4 2 8 -0.52605
chimesFF: 	2 4 9 -2.70627
chimesFF: 	4 2 9 -2.70627
chimesFF: 	2 5 2 -4.70957
chimesFF: 	5 2 2 -4.70957
chimesFF: 	2 5 5 7.67214
chimesFF: 	5 2 5 7.67214
chimesFF: 	2 5 6 -2.41042
chimesFF: 	5 2 6 -2.41042
chimesFF: 	2 5 7 -0.94258
chimesFF: 	5 2 7 -0.94258
chimesFF: 	2 5 9 0.83932
chimesFF: 	5 2 9 0.83932
chimesFF: 	2 6 0 -0.00777
chimesFF: 	6 2 0 -0.00777
chimesFF: 	2 6 3 2.77096
chimesFF: 	6 2 3 2.77096
chimesFF: 	2 6 5 -1.13316
chimesFF: 	6 2 5 -1.13316
chimesFF: 	2 6 7 1.99218
chimesFF: 	6 2 7 1.99218
chimesFF: 	2 6 8 -2.39625
chimesFF: 	6 2 8 -2.39625
chimesFF: 	2 6 9 0.56062
chimesFF: 	6 2 9 0.56062
chimesFF: 	2 7 0 11.50150
chimesFF: 	7 2 0 11.50150
chimesFF: 	2 7 1 -1.71319
chimesFF: 	7 2 1 -1.71319
chimesFF: 	2 7 2 26.98305
chimesFF: 	7 2 2 26.98305
chimesFF: 	2 7 3 -2.08468
chimesFF: 	7 2 3 -2.08468
chimesFF: 	2 7 4 12.43850
chimesFF: 	7 2 4 12.43850
chimesFF: 	2 7 6 -0.46556
chimesFF: 	7 2 6 -0.46556
chimesFF: 	2 7 9 0.64650
chimesFF: 	7 2 9 0.64650
chimesFF: 	2 8 1 -7.76781
chimesFF: 	8 2 1 -7.76781
chimesFF: 	2 8 2 -2.49281
chimesFF: 	8 2 2 -2.49281
chimesFF: 	2 8 4 -3.16101
chimesFF: 	8 2 4 -3.16101
chimesFF: 	2 8 5 1.05920
chimesFF: 	8 2 5 1.05920
chimesFF: 	2 8 6 -0.81127
chimesFF: 	8 2 6 -0.81127
chimesFF: 	2 8 7 2.07408
chimesFF: 	8 2 7 2.07408
chimesFF: 	2 8 8 0.47309
chimesFF: 	8 2 8 0.47309
chimesFF: 	2 8 9 -0.26244
chimesFF: 	8 2 9 -0.26244
chimesFF: 	2 9 0 -0.21488
chimesFF: 	9 2 0 -0.21488
chimesFF: 	2 9 1 3.52111
chimesFF: 	9 2 1 3.52111
chimesFF: 	2 9 2 4.32978
chimesFF: 	9 2 2 4.32978
chimesFF: 	2 9 3 -0.44063
chimesFF: 	9 2 3 -0.44063
chimesFF: 	2 9 5 0.87781
chimesFF: 	9 2 5 0.87781
chimesFF: 	2 9 6 -0.10614
chimesFF: 	9 2 6 -0.10614
chimesFF: 	2 9 7 -0.51981
chimesFF: 	9 2 7 -0.51981
chimesFF: 	2 9 8 0.37002
chimesFF: 	9 2 8 0.37002
chimesFF: 	2 9 9 -1.59896
chimesFF: 	9 2 9 -1.59896
chimesFF: 	3 3 0 2.84545
chimesFF: 	3 3 2 -20.59212
chimesFF: 	3 3 6 -0.48145
chimesFF: 	3 3 7 0.19312
chimesFF: 	3 3 8 -0.09877
chimesFF: 	3 3 9 0.54140
chimesFF: 	3 4 0 -1.97738
chimesFF: 	4 3 0 -1.97738
chimesFF: 	3 4 3 5.21616
chimesFF: 	4 3 3 5.21616
chimesFF: 	3 4 4 -7.46427
chimesFF: 	4 3 4 -7.46427
chimesFF: 	3 4 5 2.35941
chimesFF: 	4 3 5 2.35941
chimesFF: 	3 4 6 -1.12680
chimesFF: 	4 3 6 -1.12680
chimesFF: 	3 4 7 -2.27834
chimesFF: 	4 3 7 -2.27834
chimesFF: 	3 5 1 -2.09092
chimesFF: 	5 3 1 -2.09092
chimesFF: 	3 5 2 1.72280
chimesFF: 	5 3 2 1.72280
chimesFF: 	3 5 3 3.30043
chimesFF: 	5 3 3 3.30043
chimesFF: 	3 5 4 5.13920
chimesFF: 	5 3 4 5.13920
chimesFF: 	3 5 5 -10.77836
chimesFF: 	5 3 5 -10.77836
chimesFF: 	3 5 6 5.09791
chimesFF: 	5 3 6 5.09791
chimesFF: 	3 5 7 -1.89029
chimesFF: 	5 3 7 -1.89029
chimesFF: 	3 5 8 2.37858
chimesFF: 	5 3 8 2.37858
chimesFF: 	3 6 0 -1.75122
chimesFF: 	6 3 0 -1.75122
chimesFF: 	3 6 2 0.42825
chimesFF: 	6 3 2 0.42825
chimesFF: 	3 6 3 -6.84426
chimesFF: 	6 3 3 -6.84426
chimesFF: 	3 6 4 -6.27756
chimesFF: 	6 3 4 -6.27756
chimesFF: 	3 6 5 1.14889
chimesFF: 	6 3 5 1.14889
chimesFF: 	3 6 8 1.03779
chimesFF: 	6 3 8 1.03779
chimesFF: 	3 6 9 -0.47311
chimesFF: 	6 3 9 -0.47311
chimesFF: 	3 7 1 -2.29430
chimesFF: 	7 3 1 -2.29430
chimesFF: 	3 7 2 -1.23725
chimesFF: 	7 3 2 -1.23725
chimesFF: 	3 7 4 2.16162
chimesFF: 	7 3 4 2.16162
chimesFF: 	3 7 5 -4.78555
chimesFF: 	7 3 5 -4.78555
chimesFF: 	3 7 6 3.53841
chimesFF: 	7 3 6 3.53841
chimesFF: 	3 7 7 -2.02503
chimesFF: 	7 3 7 -2.02503
chimesFF: 	3 7 8 1.77205
chimesFF: 	7 3 8 1.77205
chimesFF: 	3 7 9 -0.92873
chimesFF: 	7 3 9 -0.92873
chimesFF: 	3 8 0 -1.27232
chimesFF: 	8 3 0 -1.27232
chimesFF: 	3 8 1 0.96922
chimesFF: 	8 3 1 0.96922
chimesFF: 	3 8 3 -5.15261
chimesFF: 	8 3 3 -5.15261
chimesFF: 	3 8 4 -1.17228
chimesFF: 	8 3 4 -1.17228
chimesFF: 	3 8 7 -2.33692
chimesFF: 	8 3 7 -2.33692
chimesFF: 	3 8 8 0.19534
chimesFF: 	8 3 8 0.19534
chimesFF: 	3 8 9 0.06796
chimesFF: 	8 3 9 0.06796
chimesFF: 	3 9 0 -3.18573
chimesFF: 	9 3 0 -3.18573
chimesFF: 	3 9 1 1.24344
chimesFF: 	9 3 1 1.24344
chimesFF: 	3 9 2 -6.76729
chimesFF: 	9 3 2 -6.76729
chimesFF: 	3 9 3 2.31538
chimesFF: 	9 3 3 2.31538
chimesFF: 	3 9 4 -1.61314
chimesFF: 	9 3 4 -1.61314
chimesFF: 	3 9 5 -2.44401
chimesFF: 	9 3 5 -2.44401
chimesFF: 	3 9 6 0.56654
chimesFF: 	9 3 6 0.56654
chimesFF: 	3 9 9 1.71438
chimesFF: 	9 3 9 1.71438
chimesFF: 	4 4 0 2.92723
chimesFF: 	4 4 3 -6.74272
chimesFF: 	4 4 5 -10.11912
chimesFF: 	4 4 6 6.53569
chimesFF: 	4 4 8 0.57442
chimesFF: 	4 4 9 -2.13992
chimesFF: 	4 5 0 -3.41153
chimesFF: 	5 4 0 -3.41153
chimesFF: 	4 5 2 -2.98119
chimesFF: 	5 4 2 -2.98119
chimesFF: 	4 5 3 -4.67961
chimesFF: 	5 4 3 -4.67961
chimesFF: 	4 5 4 0.85653
chimesFF: 	5 4 4 0.85653
chimesFF: 	4 5 7 -4.58947
chimesFF: 	5 4 7 -4.58947
chimesFF: 	4 5 8 0.48864
chimesFF: 	5 4 8 0.48864
chimesFF: 	4 5 9 0.62224
[...]
chimesFF: 	0 1 1 0 1 2 136.33650
chimesFF: 	0 1 1 1 0 2 136.33650
chimesFF: 	1 0 1 0 2 1 136.33650
chimesFF: 	1 1 0 2 0 1 136.33650
chimesFF: 	1 0 1 1 2 0 136.33650
chimesFF: 	1 1 0 2 1 0 136.33650
chimesFF: 	0 1 2 0 1 1 136.33650
chimesFF: 	0 2 1 1 0 1 136.33650
chimesFF: 	1 0 2 0 1 1 136.33650
chimesFF: 	1 2 0 1 0 1 136.33650
chimesFF: 	2 0 1 1 1 0 136.33650
chimesFF: 	2 1 0 1 1 0 136.33650
chimesFF: 	1 1 2 0 0 1 136.33650
chimesFF: 	1 2 1 0 0 1 136.33650
chimesFF: 	1 1 2 0 1 0 136.33650
chimesFF: 	1 2 1 1 0 0 136.33650
chimesFF: 	2 1 1 0 1 0 136.33650
chimesFF: 	2 1 1 1 0 0 136.33650
chimesFF: 	0 0 1 2 0 0 72.97140
chimesFF: 	0 1 0 0 2 0 72.97140
chimesFF: 	1 0 0 0 0 2 72.97140
chimesFF: 	0 2 0 0 1 0 72.97140
chimesFF: 	0 0 2 1 0 0 72.97140
chimesFF: 	2 0 0 0 0 1 72.97140
chimesFF: 	0 0 1 2 0 1 -31.08556
chimesFF: 	0 1 0 0 2 1 -31.08556
chimesFF: 	0 0 1 2 1 0 -31.08556
chimesFF: 	0 1 0 1 2 0 -31.08556
chimesFF: 	1 0 0 0 1 2 -31.08556
chimesFF: 	1 0 0 1 0 2 -31.08556
chimesFF: 	0 2 0 0 1 1 -31.08556
chimesFF: 	0 0 2 1 0 1 -31.08556
chimesFF: 	2 0 0 0 1 1 -31.08556
chimesFF: 	2 0 0 1 0 1 -31.08556
chimesFF: 	0 0 2 1 1 0 -31.08556
chimesFF: 	0 2 0 1 1 0 -31.08556
chimesFF: 	0 2 1 0 1 0 -31.08556
chimesFF: 	0 1 2 1 0 0 -31.08556
chimesFF: 	2 0 1 0 0 1 -31.08556
chimesFF: 	2 1 0 0 0 1 -31.08556
chimesFF: 	1 0 2 1 0 0 -31.08556
chimesFF: 	1 2 0 0 1 0 -31.08556
chimesFF: 	1 0 1 0 0 2 -31.08556
chimesFF: 	1 1 0 0 0 2 -31.08556
chimesFF: 	0 1 1 0 2 0 -31.08556
chimesFF: 	0 1 1 2 0 0 -31.08556
chimesFF: 	1 1 0 0 2 0 -31.08556
chimesFF: 	1 0 1 2 0 0 -31.08556
chimesFF: 	0 0 1 2 0 2 -74.07805
chimesFF: 	0 1 0 0 2 2 -74.07805
chimesFF: 	0 0 1 2 2 0 -74.07805
chimesFF: 	0 1 0 2 2 0 -74.07805
chimesFF: 	1 0 0 0 2 2 -74.07805
chimesFF: 	1 0 0 2 0 2 -74.07805
chimesFF: 	0 2 0 0 1 2 -74.07805
chimesFF: 	0 0 2 1 0 2 -74.07805
chimesFF: 	2 0 0 0 2 1 -74.07805
chimesFF: 	2 0 0 2 0 1 -74.07805
chimesFF: 	0 0 2 1 2 0 -74.07805
chimesFF: 	0 2 0 2 1 0 -74.07805
chimesFF: 	0 2 2 0 1 0 -74.07805
chimesFF: 	0 2 2 1 0 0 -74.07805
chimesFF: 	2 0 2 0 0 1 -74.07805
chimesFF: 	2 2 0 0 0 1 -74.07805
chimesFF: 	2 0 2 1 0 0 -74.07805
chimesFF: 	2 2 0 0 1 0 -74.07805
chimesFF: 	1 0 2 0 0 2 -74.07805
chimesFF: 	1 2 0 0 0 2 -74.07805
chimesFF: 	0 1 2 0 2 0 -74.07805
chimesFF: 	0 2 1 2 0 0 -74.07805
chimesFF: 	2 1 0 0 2 0 -74.07805
chimesFF: 	2 0 1 2 0 0 -74.07805
chimesFF: 	0 0 1 2 1 1 -76.26405
chimesFF: 	0 1 0 1 2 1 -76.26405
chimesFF: 	1 0 0 1 1 2 -76.26405
chimesFF: 	0 2 1 0 1 1 -76.26405
chimesFF: 	0 1 2 1 0 1 -76.26405
chimesFF: 	2 0 1 0 1 1 -76.26405
chimesFF: 	2 1 0 1 0 1 -76.26405
chimesFF: 	1 0 2 1 1 0 -76.26405
chimesFF: 	1 2 0 1 1 0 -76.26405
chimesFF: 	1 1 1 0 0 2 -76.26405
chimesFF: 	1 1 1 0 2 0 -76.26405
chimesFF: 	1 1 1 2 0 0 -76.26405
chimesFF: 	0 0 1 2 1 2 -149.30326
chimesFF: 	0 1 0 1 2 2 -149.30326
chimesFF: 	0 0 1 2 2 1 -149.30326
chimesFF: 	0 1 0 2 2 1 -149.30326
chimesFF: 	1 0 0 1 2 2 -149.30326
chimesFF: 	1 0 0 2 1 2 -149.30326
chimesFF: 	0 2 1 0 1 2 -149.30326
chimesFF: 	0 1 2 1 0 2 -149.30326
chimesFF: 	2 0 1 0 2 1 -149.30326
chimesFF: 	2 1 0 2 0 1 -149.30326
chimesFF: 	1 0 2 1 2 0 -149.30326
chimesFF: 	1 2 0 2 1 0 -149.30326
chimesFF: 	0 2 2 0 1 1 -149.30326
chimesFF: 	0 2 2 1 0 1 -149.30326
chimesFF: 	2 0 2 0 1 1 -149.30326
chimesFF: 	2 2 0 1 0 1 -149.30326
chimesFF: 	2 0 2 1 1 0 -149.30326
chimesFF: 	2 2 0 1 1 0 -149.30326
chimesFF: 	1 1 2 0 0 2 -149.30326
chimesFF: 	1 2 1 0 0 2 -149.30326
chimesFF: 	1 1 2 0 2 0 -149.30326
chimesFF: 	1 2 1 2 0 0 -149.30326
chimesFF: 	2 1 1 0 2 0 -149.30326
chimesFF: 	2 1 1 2 0 0 -149.30326
chimesFF: 	0 0 1 2 2 2 23.29442
chimesFF: 	0 1 0 2 2 2 23.29442
chimesFF: 	1 0 0 2 2 2 23.29442
chimesFF: 	0 2 2 0 1 2 23.29442
chimesFF: 	0 2 2 1 0 2 23.29442
chimesFF: 	2 0 2 0 2 1 23.29442
chimesFF: 	2 2 0 2 0 1 23.29442
chimesFF: 	2 0 2 1 2 0 23.29442
chimesFF: 	2 2 0 2 1 0 23.29442
chimesFF: 	1 2 2 0 0 2 23.29442
chimesFF: 	2 1 2 0 2 0 23.29442
chimesFF: 	2 2 1 2 0 0 23.29442
chimesFF: 	0 0 2 0 2 2 122.63883
chimesFF: 	0 2 0 2 0 2 122.63883
chimesFF: 	2 0 0 2 2 0 122.63883
chimesFF: 	2 2 2 0 0 0 122.63883
chimesFF: 	0 0 2 1 1 2 84.06122
chimesFF: 	0 2 0 1 1 2 84.06122
chimesFF: 	0 0 2 1 2 1 84.06122
chimesFF: 	0 2 0 2 1 1 84.06122
chimesFF: 	2 0 0 1 2 1 84.06122
chimesFF: 	2 0 0 2 1 1 84.06122
chimesFF: 	0 1 1 0 2 2 84.06122
chimesFF: 	0 1 1 2 0 2 84.06122
chimesFF: 	1 0 1 0 2 2 84.06122
chimesFF: 	1 1 0 2 0 2 84.06122
chimesFF: 	1 0 1 2 2 0 84.06122
chimesFF: 	1 1 0 2 2 0 84.06122
chimesFF: 	0 1 2 0 2 1 84.06122
chimesFF: 	0 2 1 2 0 1 84.06122
chimesFF: 	1 0 2 0 1 2 84.06122
chimesFF: 	1 2 0 1 0 2 84.06122
chimesFF: 	2 0 1 2 1 0 84.06122
chimesFF: 	2 1 0 1 2 0 84.06122
chimesFF: 	2 1 2 0 0 1 84.06122
chimesFF: 	2 2 1 0 0 1 84.06122
chimesFF: 	1 2 2 0 1 0 84.06122
chimesFF: 	1 2 2 1 0 0 84.06122
chimesFF: 	2 2 1 0 1 0 84.06122
chimesFF: 	2 1 2 1 0 0 84.06122
chimesFF: 	0 0 2 1 2 2 -238.94289
chimesFF: 	0 2 0 2 1 2 -238.94289
chimesFF: 	2 0 0 2 2 1 -238.94289
chimesFF: 	0 1 2 0 2 2 -238.94289
chimesFF: 	0 2 1 2 0 2 -238.94289
chimesFF: 	1 0 2 0 2 2 -238.94289
chimesFF: 	1 2 0 2 0 2 -238.94289
chimesFF: 	2 0 1 2 2 0 -238.94289
chimesFF: 	2 1 0 2 2 0 -238.94289
chimesFF: 	2 2 2 0 0 1 -238.94289
chimesFF: 	2 2 2 0 1 0 -238.94289
chimesFF: 	2 2 2 1 0 0 -238.94289
chimesFF: 	0 0 2 2 0 0 -429.63269
chimesFF: 	0 2 0 0 2 0 -429.63269
chimesFF: 	2 0 0 0 0 2 -429.63269
chimesFF: 	0 0 2 2 0 1 155.54629
chimesFF: 	0 2 0 0 2 1 155.54629
chimesFF: 	0 0 2 2 1 0 155.54629
chimesFF: 	0 2 0 1 2 0 155.54629
chimesFF: 	2 0 0 0 1 2 155.54629
chimesFF: 	2 0 0 1 0 2 155.54629
chimesFF: 	0 2 1 0 2 0 155.54629
chimesFF: 	0 1 2 2 0 0 155.54629
chimesFF: 	2 0 1 0 0 2 155.54629
chimesFF: 	2 1 0 0 0 2 155.54629
chimesFF: 	1 0 2 2 0 0 155.54629
chimesFF: 	1 2 0 0 2 0 155.54629
chimesFF: 	0 0 2 2 0 2 -114.68433
chimesFF: 	0 2 0 0 2 2 -114.68433
chimesFF: 	0 0 2 2 2 0 -114.68433
chimesFF: 	0 2 0 2 2 0 -114.68433
chimesFF: 	2 0 0 0 2 2 -114.68433
chimesFF: 	2 0 0 2 0 2 -114.68433
chimesFF: 	0 2 2 0 2 0 -114.68433
chimesFF: 	0 2 2 2 0 0 -114.68433
chimesFF: 	2 0 2 0 0 2 -114.68433
chimesFF: 	2 2 0 0 0 2 -114.68433
chimesFF: 	2 0 2 2 0 0 -114.68433
chimesFF: 	2 2 0 0 2 0 -114.68433
chimesFF: 	0 0 2 2 1 2 52.51691
chimesFF: 	0 2 0 1 2 2 52.51691
chimesFF: 	0 0 2 2 2 1 52.51691
chimesFF: 	0 2 0 2 2 1 52.51691
chimesFF: 	2 0 0 1 2 2 52.51691
chimesFF: 	2 0 0 2 1 2 52.51691
chimesFF: 	0 2 1 0 2 2 52.51691
chimesFF: 	0 1 2 2 0 2 52.51691
chimesFF: 	2 0 1 0 2 2 52.51691
chimesFF: 	2 1 0 2 0 2 52.51691
chimesFF: 	1 0 2 2 2 0 52.51691
chimesFF: 	1 2 0 2 2 0 52.51691
chimesFF: 	0 2 2 0 2 1 52.51691
chimesFF: 	0 2 2 2 0 1 52.51691
chimesFF: 	2 0 2 0 1 2 52.51691
chimesFF: 	2 2 0 1 0 2 52.51691
chimesFF: 	2 0 2 2 1 0 52.51691
chimesFF: 	2 2 0 1 2 0 52.51691
chimesFF: 	2 1 2 0 0 2 52.51691
chimesFF: 	2 2 1 0 0 2 52.51691
chimesFF: 	1 2 2 0 2 0 52.51691
chimesFF: 	1 2 2 2 0 0 52.51691
chimesFF: 	2 2 1 0 2 0 52.51691
chimesFF: 	2 1 2 2 0 0 52.51691
chimesFF: 	0 0 2 2 2 2 70.69152
chimesFF: 	0 2 0 2 2 2 70.69152
chimesFF: 	2 0 0 2 2 2 70.69152
chimesFF: 	0 2 2 0 2 2 70.69152
chimesFF: 	0 2 2 2 0 2 70.69152
chimesFF: 	2 0 2 0 2 2 70.69152
chimesFF: 	2 2 0 2 0 2 70.69152
chimesFF: 	2 0 2 2 2 0 70.69152
chimesFF: 	2 2 0 2 2 0 70.69152
chimesFF: 	2 2 2 0 0 2 70.69152
chimesFF: 	2 2 2 0 2 0 70.69152
chimesFF: 	2 2 2 2 0 0 70.69152
chimesFF: 	0 1 1 1 2 0 23.29692
chimesFF: 	0 1 1 2 1 0 23.29692
chimesFF: 	1 0 1 1 0 2 23.29692
chimesFF: 	1 1 0 0 1 2 23.29692
chimesFF: 	1 0 1 2 0 1 23.29692
chimesFF: 	1 1 0 0 2 1 23.29692
chimesFF: 	0 1 2 1 1 0 23.29692
chimesFF: 	0 2 1 1 1 0 23.29692
chimesFF: 	1 0 2 1 0 1 23.29692
chimesFF: 	1 2 0 0 1 1 23.29692
chimesFF: 	2 0 1 1 0 1 23.29692
chimesFF: 	2 1 0 0 1 1 23.29692
chimesFF: 	0 1 1 1 2 1 77.95246
chimesFF: 	0 1 1 2 1 1 77.95246
chimesFF: 	1 0 1 1 1 2 77.95246
chimesFF: 	1 1 0 1 1 2 77.95246
chimesFF: 	1 0 1 2 1 1 77.95246
chimesFF: 	1 1 0 1 2 1 77.95246
chimesFF: 	0 1 2 1 1 1 77.95246
chimesFF: 	0 2 1 1 1 1 77.95246
chimesFF: 	1 0 2 1 1 1 77.95246
chimesFF: 	1 2 0 1 1 1 77.95246
chimesFF: 	2 0 1 1 1 1 77.95246
chimesFF: 	2 1 0 1 1 1 77.95246
chimesFF: 	1 1 1 0 1 2 77.95246
chimesFF: 	1 1 1 1 0 2 77.95246
chimesFF: 	1 1 1 0 2 1 77.95246
chimesFF: 	1 1 1 2 0 1 77.95246
chimesFF: 	1 1 1 1 2 0 77.95246
chimesFF: 	1 1 1 2 1 0 77.95246
chimesFF: 	1 2 1 0 1 1 77.95246
chimesFF: 	1 1 2 1 0 1 77.95246
chimesFF: 	2 1 1 0 1 1 77.95246
chimesFF: 	2 1 1 1 0 1 77.95246
chimesFF: 	1 1 2 1 1 0 77.95246
chimesFF: 	1 2 1 1 1 0 77.95246
chimesFF: 	0 1 1 2 2 0 -70.45602
chimesFF: 	1 0 1 2 0 2 -70.45602
chimesFF: 	1 1 0 0 2 2 -70.45602
chimesFF: 	0 2 2 1 1 0 -70.45602
chimesFF: 	2 0 2 1 0 1 -70.45602
chimesFF: 	2 2 0 0 1 1 -70.45602
chimesFF: 	1 2 0 0 1 2 -70.45602
chimesFF: 	1 0 2 1 0 2 -70.45602
chimesFF: 	2 1 0 0 2 1 -70.45602
chimesFF: 	2 0 1 2 0 1 -70.45602
chimesFF: 	0 1 2 1 2 0 -70.45602
chimesFF: 	0 2 1 2 1 0 -70.45602
chimesFF: 	0 1 1 2 2 1 108.55711
chimesFF: 	1 0 1 2 1 2 108.55711
chimesFF: 	1 1 0 1 2 2 108.55711
chimesFF: 	0 2 2 1 1 1 108.55711
chimesFF: 	2 0 2 1 1 1 108.55711
chimesFF: 	2 2 0 1 1 1 108.55711
chimesFF: 	1 2 1 0 1 2 108.55711
chimesFF: 	1 1 2 1 0 2 108.55711
chimesFF: 	2 1 1 0 2 1 108.55711
chimesFF: 	2 1 1 2 0 1 108.55711
chimesFF: 	1 1 2 1 2 0 108.55711
chimesFF: 	1 2 1 2 1 0 108.55711
chimesFF: 	0 1 2 1 2 2 61.71956
chimesFF: 	0 2 1 2 1 2 61.71956
chimesFF: 	1 0 2 1 2 2 61.71956
chimesFF: 	1 2 0 2 1 2 61.71956
chimesFF: 	2 0 1 2 2 1 61.71956
chimesFF: 	2 1 0 2 2 1 61.71956
chimesFF: 	1 1 2 0 2 2 61.71956
chimesFF: 	1 2 1 2 0 2 61.71956
chimesFF: 	2 1 1 2 2 0 61.71956
chimesFF: 	2 2 2 0 1 1 61.71956
chimesFF: 	2 2 2 1 0 1 61.71956
chimesFF: 	2 2 2 1 1 0 61.71956
chimesFF: 	0 1 2 2 1 0 11.13646
chimesFF: 	0 2 1 1 2 0 11.13646
chimesFF: 	1 0 2 2 0 1 11.13646
chimesFF: 	1 2 0 0 2 1 11.13646
chimesFF: 	2 0 1 1 0 2 11.13646
chimesFF: 	2 1 0 0 1 2 11.13646
chimesFF: 	0 1 2 2 1 2 -46.78674
chimesFF: 	0 2 1 1 2 2 -46.78674
chimesFF: 	1 0 2 2 2 1 -46.78674
chimesFF: 	1 2 0 2 2 1 -46.78674
chimesFF: 	2 0 1 1 2 2 -46.78674
chimesFF: 	2 1 0 2 1 2 -46.78674
chimesFF: 	1 2 2 0 2 1 -46.78674
chimesFF: 	1 2 2 2 0 1 -46.78674
chimesFF: 	2 1 2 0 1 2 -46.78674
chimesFF: 	2 2 1 1 0 2 -46.78674
chimesFF: 	2 1 2 2 1 0 -46.78674
chimesFF: 	2 2 1 1 2 0 -46.78674
chimesFF: 	0 1 2 2 2 0 11.64026
chimesFF: 	0 2 1 2 2 0 11.64026
chimesFF: 	1 0 2 2 0 2 11.64026
chimesFF: 	1 2 0 0 2 2 11.64026
chimesFF: 	2 0 1 2 0 2 11.64026
chimesFF: 	2 1 0 0 2 2 11.64026
chimesFF: 	0 2 2 1 2 0 11.64026
chimesFF: 	0 2 2 2 1 0 11.64026
chimesFF: 	2 0 2 1 0 2 11.64026
chimesFF: 	2 2 0 0 1 2 11.64026
chimesFF: 	2 0 2 2 0 1 11.64026
chimesFF: 	2 2 0 0 2 1 11.64026
chimesFF: 	0 1 2 2 2 2 -48.81278
chimesFF: 	0 2 1 2 2 2 -48.81278
chimesFF: 	1 0 2 2 2 2 -48.81278
chimesFF: 	1 2 0 2 2 2 -48.81278
chimesFF: 	2 0 1 2 2 2 -48.81278
chimesFF: 	2 1 0 2 2 2 -48.81278
chimesFF: 	0 2 2 1 2 2 -48.81278
chimesFF: 	0 2 2 2 1 2 -48.81278
chimesFF: 	2 0 2 1 2 2 -48.81278
chimesFF: 	2 2 0 2 1 2 -48.81278
chimesFF: 	2 0 2 2 2 1 -48.81278
chimesFF: 	2 2 0 2 2 1 -48.81278
chimesFF: 	1 2 2 0 2 2 -48.81278
chimesFF: 	1 2 2 2 0 2 -48.81278
chimesFF: 	2 1 2 0 2 2 -48.81278
chimesFF: 	2 2 1 2 0 2 -48.81278
chimesFF: 	2 1 2 2 2 0 -48.81278
chimesFF: 	2 2 1 2 2 0 -48.81278
chimesFF: 	2 2 2 0 1 2 -48.81278
chimesFF: 	2 2 2 1 0 2 -48.81278
chimesFF: 	2 2 2 0 2 1 -48.81278
chimesFF: 	2 2 2 2 0 1 -48.81278
chimesFF: 	2 2 2 1 2 0 -48.81278
chimesFF: 	2 2 2 2 1 0 -48.81278
chimesFF: 	0 2 2 2 2 2 123.85296
chimesFF: 	2 0 2 2 2 2 123.85296
chimesFF: 	2 2 0 2 2 2 123.85296
chimesFF: 	2 2 2 0 2 2 123.85296
chimesFF: 	2 2 2 2 0 2 123.85296
chimesFF: 	2 2 2 2 2 0 123.85296
chimesFF: 	1 1 2 2 2 2 5.04596
chimesFF: 	1 2 1 2 2 2 5.04596
chimesFF: 	2 1 1 2 2 2 5.04596
chimesFF: 	1 2 2 1 2 2 5.04596
chimesFF: 	1 2 2 2 1 2 5.04596
chimesFF: 	2 1 2 1 2 2 5.04596
chimesFF: 	2 2 1 2 1 2 5.04596
chimesFF: 	2 1 2 2 2 1 5.04596
chimesFF: 	2 2 1 2 2 1 5.04596
chimesFF: 	2 2 2 1 1 2 5.04596
chimesFF: 	2 2 2 1 2 1 5.04596
chimesFF: 	2 2 2 2 1 1 5.04596
chimesFF: 	1 2 2 2 2 2 41.97018
chimesFF: 	2 1 2 2 2 2 41.97018
chimesFF: 	2 2 1 2 2 2 41.97018
chimesFF: 	2 2 2 1 2 2 41.97018
chimesFF: 	2 2 2 2 1 2 41.97018
chimesFF: 	2 2 2 2 2 1 41.97018
chimesFF: Read 4B parameters for quadruplets: 1 C C C Si
chimesFF: 	0 0 1 1 0 2 238.60200
chimesFF: 	0 0 1 1 2 0 238.60200
chimesFF: 	0 1 0 0 1 2 238.60200
chimesFF: 	1 0 0 0 2 1 238.60200
chimesFF: 	0 1 2 0 1 0 238.60200
chimesFF: 	1 0 2 0 0 1 238.60200
chimesFF: 	0 0 1 2 0 2 -16.81661
chimesFF: 	0 0 1 2 2 0 -16.81661
chimesFF: 	0 2 0 0 1 2 -16.81661
chimesFF: 	2 0 0 0 2 1 -16.81661
chimesFF: 	0 2 2 0 1 0 -16.81661
chimesFF: 	2 0 2 0 0 1 -16.81661
chimesFF: 	0 0 2 1 0 1 -31.53311
chimesFF: 	0 0 2 1 1 0 -31.53311
chimesFF: 	0 1 0 0 2 1 -31.53311
chimesFF: 	1 0 0 0 1 2 -31.53311
chimesFF: 	0 1 1 0 2 0 -31.53311
chimesFF: 	1 0 1 0 0 2 -31.53311
chimesFF: 	0 0 2 2 0 0 -455.59504
chimesFF: 	0 2 0 0 2 0 -455.59504
chimesFF: 	2 0 0 0 0 2 -455.59504
chimesFF: 	0 0 2 2 0 1 241.02081
chimesFF: 	0 0 2 2 1 0 241.02081
chimesFF: 	0 2 0 0 2 1 241.02081
chimesFF: 	2 0 0 0 1 2 241.02081
chimesFF: 	0 2 1 0 2 0 241.02081
chimesFF: 	2 0 1 0 0 2 241.02081
chimesFF: 	0 0 2 2 0 2 -46.67477
chimesFF: 	0 0 2 2 2 0 -46.67477
chimesFF: 	0 2 0 0 2 2 -46.67477
chimesFF: 	2 0 0 0 2 2 -46.67477
chimesFF: 	0 2 2 0 2 0 -46.67477
chimesFF: 	2 0 2 0 0 2 -46.67477
chimesFF: 	0 1 0 2 0 1 -238.19535
chimesFF: 	1 0 0 2 1 0 -238.19535
chimesFF: 	0 2 0 1 0 1 -238.19535
chimesFF: 	2 0 0 1 1 0 -238.19535
chimesFF: 	1 2 1 0 0 0 -238.19535
chimesFF: 	2 1 1 0 0 0 -238.19535
chimesFF: 	0 1 0 2 2 0 -71.38608
chimesFF: 	1 0 0 2 0 2 -71.38608
chimesFF: 	0 2 2 1 0 0 -71.38608
chimesFF: 	2 0 2 1 0 0 -71.38608
chimesFF: 	1 2 0 0 0 2 -71.38608
chimesFF: 	2 1 0 0 2 0 -71.38608
chimesFF: 	0 1 2 2 0 2 -49.12755
chimesFF: 	1 0 2 2 2 0 -49.12755
chimesFF: 	0 2 0 1 2 2 -49.12755
chimesFF: 	2 0 0 1 2 2 -49.12755
chimesFF: 	1 2 2 0 2 0 -49.12755
chimesFF: 	2 1 2 0 0 2 -49.12755
chimesFF: 	0 2 0 2 0 2 55.32309
chimesFF: 	2 0 0 2 2 0 55.32309
chimesFF: 	2 2 2 0 0 0 55.32309
chimesFF: 	0 2 0 2 2 1 -5.09782
chimesFF: 	2 0 0 2 1 2 -5.09782
chimesFF: 	0 2 2 2 0 1 -5.09782
chimesFF: 	2 0 2 2 1 0 -5.09782
chimesFF: 	2 2 1 0 0 2 -5.09782
chimesFF: 	2 2 1 0 2 0 -5.09782
chimesFF: 	0 2 2 2 2 0 27.69953
chimesFF: 	2 0 2 2 0 2 27.69953
chimesFF: 	2 2 0 0 2 2 27.69953
chimesFF: 	0 2 2 2 2 2 -183.74912
chimesFF: 	2 0 2 2 2 2 -183.74912
chimesFF: 	2 2 2 0 2 2 -183.74912
chimesFF: 	1 1 0 1 0 2 73.18303
chimesFF: 	1 1 0 1 2 0 73.18303
chimesFF: 	1 1 2 1 0 0 73.18303
chimesFF: Read 4B parameters for quadruplets: 2 C C Si Si
chimesFF: 	0 0 2 2 0 0 -451.90291
chimesFF: 	0 2 0 0 2 0 -451.90291
chimesFF: 	0 0 2 2 1 0 118.75395
chimesFF: 	0 2 0 1 2 0 118.75395
chimesFF: 	0 2 1 0 2 0 118.75395
chimesFF: 	0 1 2 2 0 0 118.75395
chimesFF: 	0 0 2 2 1 2 -25.88356
chimesFF: 	0 2 0 1 2 2 -25.88356
chimesFF: 	0 2 1 0 2 2 -25.88356
chimesFF: 	0 1 2 2 0 2 -25.88356
chimesFF: 	0 0 2 2 2 1 -147.37749
chimesFF: 	0 2 0 2 2 1 -147.37749
chimesFF: 	0 2 2 0 2 1 -147.37749
chimesFF: 	0 2 2 2 0 1 -147.37749
chimesFF: 	1 0 0 0 1 2 -70.11450
chimesFF: 	1 0 0 1 0 2 -70.11450
chimesFF: 	1 0 1 0 0 2 -70.11450
chimesFF: 	1 1 0 0 0 2 -70.11450
chimesFF: 	2 0 0 0 2 2 152.94123
chimesFF: 	2 0 0 2 0 2 152.94123
chimesFF: 	2 0 2 0 0 2 152.94123
chimesFF: 	2 2 0 0 0 2 152.94123
chimesFF: 	2 0 2 2 2 2 -173.02124
chimesFF: 	2 2 0 2 2 2 -173.02124
chimesFF: 	2 2 2 0 2 2 -173.02124
chimesFF: 	2 2 2 2 0 2 -173.02124
chimesFF: Read 4B parameters for quadruplets: 3 C Si Si Si
chimesFF: 	Type is excluded... skipping.
chimesFF: Read 4B parameters for quadruplets: 4 Si Si Si Si
chimesFF: 	Type is excluded... skipping.
chimesFF: Built the following 4-body pair "slow" map:
chimesFF: 	0 CCCCCCCCCCCC
chimesFF: 	1 CCCCCSiCCCSiCSi
chimesFF: 	1 CCCSiCCCSiCCCSi
chimesFF: 	2 CCCSiCSiCSiCSiSiSi
chimesFF: 	1 CSiCCCCCSiCSiCC
chimesFF: 	2 CSiCCCSiCSiSiSiCSi
chimesFF: 	2 CSiCSiCCSiSiCSiCSi
chimesFF: 	1 CSiCSiCSiCCCCCC
chimesFF: 	-1 CSiCSiCSiSiSiSiSiSiSi
chimesFF: 	2 CSiCSiSiSiCCCSiCSi
chimesFF: 	2 CSiSiSiCSiCSiCCCSi
chimesFF: 	-1 CSiSiSiSiSiCSiCSiSiSi
chimesFF: 	2 SiSiCSiCSiCSiCSiCC
chimesFF: 	-1 SiSiCSiSiSiCSiSiSiCSi
chimesFF: 	-1 SiSiSiSiCSiSiSiCSiCSi
chimesFF: 	-1 SiSiSiSiSiSiSiSiSiSiSiSi
chimesFF: Built the following 4-body pair "fast" map:
chimesFF: 	0 0
chimesFF: 	1 1
chimesFF: 	2 1
chimesFF: 	3 2
chimesFF: 	4 1
chimesFF: 	5 2
chimesFF: 	6 2
chimesFF: 	7 -1
chimesFF: 	8 1
chimesFF: 	9 2
chimesFF: 	10 2
chimesFF: 	11 -1
chimesFF: 	12 2
chimesFF: 	13 -1
chimesFF: 	14 -1
chimesFF: 	15 -1
chimesFF: Set the following special 4-body outer cutoffs: 
chimesFF: 	0 3.12500 3.12500 3.12500 3.12500 3.12500 3.12500
chimesFF: 	1 3.12500 3.12500 3.12500 3.12500 3.12500 3.12500
chimesFF: 	2 3.12500 3.12500 3.12500 3.12500 3.12500 3.12500
chimesFF: 	3 5.50000 5.50000 5.50000 6.00000 6.00000 6.00000
chimesFF: 	4 6.00000 6.00000 6.00000 6.00000 6.00000 6.00000
Warning: Did not initialize pair_int_quad_map for excluded entry 7
Warning: Did not initialize pair_int_quad_map for excluded entry 11
Warning: Did not initialize pair_int_quad_map for excluded entry 13
Warning: Did not initialize pair_int_quad_map for excluded entry 14
Warning: Did not initialize pair_int_quad_map for excluded entry 15
chimesFF: 	Setting 3-body max cutoff to: 5.00000
chimesFF: 	Setting 4-body max cutoff to: 6.00000
Neighbor list info ...
  update every 1 steps, delay 0 steps, check yes
  max neighbors/atom: 2000, page size: 100000
  master list distance cutoff = 13
  ghost atom cutoff = 13
  binsize = 6.5, bins = 3 3 3
  2 neighbor lists, perpetual/occasional/extra = 2 0 0
  (1) pair chimesFF, perpetual
      attributes: full, newton on, ghost
      pair build: full/bin/ghost
      stencil: full/ghost/bin/3d
      bin: standard
  (2) pair momb, perpetual
      attributes: half, newton on
      pair build: half/bin/newton/tri
      stencil: half/bin/3d/newton/tri
      bin: standard
Setting up Verlet run ...
  Unit style    : real
  Current step  : 0
  Time step     : 0.1
Updating chimesFF neighbor lists...
	Rank 0 3-body list size: 57
	Rank 0 4-body list size: 1068
	...update complete
Per MPI rank memory allocation (min/avg/max) = 9.532 | 9.752 | 9.916 Mbytes
Step Time KinEng PotEng TotEng Temp Press Pxx Pyy Pzz Pxy Pxz Pyz Volume c_ke_tensor[1] c_ke_tensor[2] c_ke_tensor[3] c_ke_tensor[4] c_ke_tensor[5] c_ke_tensor[6] 
       0              0.00000            640.87416         -38020.51440         -37379.64024           1000.00000          62589.54878          64511.76089          62444.70672          60812.17872           5125.96741          13358.43393           -951.78145           2228.57379            394.41993            459.00322            428.32517             -3.37339            -12.84335             12.43011 
Loop time of 2.1926e-06 on 56 procs for 0 steps with 216 atoms

131.1% CPU use with 56 MPI tasks x no OpenMP threads

MPI task timing breakdown:
Section |  min time  |  avg time  |  max time  |%varavg| %total
---------------------------------------------------------------
Pair    | 0          | 0          | 0          |   0.0 |  0.00
Neigh   | 0          | 0          | 0          |   0.0 |  0.00
Comm    | 0          | 0          | 0          |   0.0 |  0.00
Output  | 0          | 0          | 0          |   0.0 |  0.00
Modify  | 0          | 0          | 0          |   0.0 |  0.00
Other   |            | 2.193e-06  |            |       |100.00

Nlocal:        3.85714 ave           6 max           1 min
Histogram: 1 0 6 0 14 0 18 0 13 4
Nghost:        2495.70 ave        2548 max        2428 min
Histogram: 6 1 9 4 4 0 5 7 15 5
Neighs:        1715.48 ave        2730 max         442 min
Histogram: 1 3 3 13 1 17 1 12 1 4
FullNghs:      3430.96 ave        5339 max         887 min
Histogram: 1 2 4 5 9 7 11 7 6 4

Total # of neighbors = 192134
Ave neighs/atom = 889.50926
Neighbor list builds = 0
Dangerous builds = 0

Please see the log.cite file for references relevant to this simulation

Total wall time: 0:00:01
