# Generated by /usr/workspace/wsa/lyu1/utils/xyz_2_lammsps_data.py

104576 atoms
2 atom types

0.0 150.0 xlo xhi
0.0 150.0 ylo yhi
0.0 150.0 zlo zhi

Masses

1  12.0107
2  39.948

Atoms

1 1 72.741552 77.295013 94.512782
2 1 67.626727 62.980369 78.446618
3 1 60.479933 66.311825 85.575708
4 1 82.293124 78.716600 69.806280
5 1 83.606882 72.559356 88.349704
6 1 89.226017 66.916806 74.478069
7 1 73.301112 61.389447 71.634005
8 1 66.562301 89.469812 78.333503
9 1 58.721671 74.583931 64.196564
10 1 84.368086 64.850525 63.962792
11 1 86.298496 73.030283 72.551172
12 1 74.656326 94.275008 79.017897
13 1 80.342601 66.675785 89.590391
14 1 75.514887 77.447702 92.085447
15 1 69.503678 83.618148 70.163945
16 1 77.087738 88.353374 62.519605
17 1 76.089950 71.897828 55.401875
18 1 85.221631 60.905342 84.574563
19 1 81.469837 86.544358 75.417988
20 1 89.133486 61.996968 80.821362
21 1 70.027747 68.498497 64.336147
22 1 73.876539 55.115948 74.668680
23 1 79.692475 80.904017 91.096528
24 1 74.804303 83.330582 58.186429
25 1 67.854282 78.631106 85.523024
26 1 94.368359 73.813619 75.445391
27 1 67.809887 66.012611 63.554972
28 1 71.724267 65.864169 78.989289
29 1 90.919585 76.067435 76.585545
30 1 77.416278 65.827610 64.568400
31 1 61.421847 73.671203 83.186974
32 1 83.810695 66.625004 59.220346
33 1 67.834410 79.931858 71.498254
34 1 72.271160 70.027744 63.261485
35 1 72.901783 86.795239 67.654654
36 1 60.647814 80.370238 77.109611
37 1 61.017248 84.200664 85.699565
38 1 77.780102 76.295030 89.318929
39 1 77.481339 61.372716 85.682157
40 1 69.896440 68.980011 93.447320
41 1 69.358370 75.627855 79.105882
42 1 68.775635 59.295315 85.101317
43 1 75.007718 88.415254 71.211021
44 1 69.072293 63.865316 76.957754
45 1 79.071095 56.793368 82.201038
46 1 63.011959 89.277374 77.602180
47 1 75.488147 59.561947 80.593979
48 1 77.315167 70.083734 83.698667
49 1 76.582665 58.710718 84.936583
50 1 81.053808 63.928488 61.361625
51 1 77.619236 64.271819 66.108304
52 1 80.551674 70.484401 79.618335
53 1 69.805734 77.641332 85.207205
54 1 68.575569 77.181903 69.498563
55 1 84.874393 72.813690 90.128630
56 1 70.678509 86.531536 70.835576
57 1 73.996334 72.570128 55.455745
58 1 61.861015 71.063430 69.328726
59 1 79.958935 57.808934 83.978811
60 1 71.725223 64.084786 80.277043
61 1 71.416720 79.012467 85.794129
62 1 59.013530 68.885604 80.196755
63 1 67.674559 73.153756 93.590985
64 1 57.779350 71.168456 70.772086
65 1 67.206837 68.243216 59.258857
66 1 67.114623 60.975649 84.532917
67 1 89.372344 82.575553 83.711422
68 1 80.133638 88.803338 76.551389
69 1 68.450591 74.628007 83.980411
70 1 66.964122 81.963106 65.531346
71 1 90.741280 79.431444 74.008517
72 1 73.036689 72.238525 92.557457
73 1 79.146833 61.626707 70.708964
74 1 82.611947 63.116289 87.953770
75 1 66.587960 74.601031 82.809711
76 1 89.063114 68.658337 85.500290
77 1 66.573004 75.028113 87.869037
78 1 61.900423 73.016675 87.477365
79 1 66.418570 65.559275 67.323718
80 1 62.318197 72.162696 72.435718
81 1 82.735024 82.433718 62.713863
82 1 81.175435 81.996496 72.962714
83 1 74.777263 73.780604 74.550210
84 1 79.719696 56.763146 77.259950
85 1 82.949362 71.408779 58.868528
86 1 68.476670 76.986706 86.842902
87 1 71.355484 76.210959 91.121056
88 1 68.428419 88.838980 87.287850
89 1 73.825935 87.427691 61.295842
90 1 61.921855 63.670922 80.245229
91 1 73.907887 65.273077 65.726052
92 1 77.044175 57.050935 74.647761
93 1 69.792500 72.320291 90.289601
94 1 77.396504 72.586998 64.166592
95 1 82.984959 80.981280 73.691064
96 1 85.472471 83.867375 71.824161
97 1 89.003883 69.273970 77.916683
98 1 59.241647 84.023801 79.003171
99 1 86.679128 62.234889 65.063473
100 1 74.360974 73.829369 89.006745
101 1 73.826908 67.215830 80.278808
102 1 86.419023 75.691490 90.284429
103 1 64.315371 84.004987 87.503135
104 1 60.644030 72.600900 67.575135
105 1 73.193442 80.355296 63.168963
106 1 71.399681 78.030847 77.542297
107 1 78.889822 69.327869 59.224231
108 1 77.449981 76.337135 73.730137
109 1 78.253637 62.239445 62.838745
110 1 86.787230 81.102401 74.965726
111 1 66.973516 82.521395 70.587983
112 1 87.354990 65.604453 74.009551
113 1 79.661025 74.416697 75.916914
114 1 89.777815 82.065810 65.828366
115 1 63.690978 65.604574 67.369893
116 1 67.471338 70.501076 62.221025
117 1 79.172300 60.674388 66.805772
118 1 72.153444 64.626163 68.607293
119 1 62.188371 77.337749 68.896202
120 1 66.368145 70.404122 78.731677
121 1 86.154829 73.178760 87.725521
122 1 71.524624 80.594279 71.105042
123 1 77.860489 67.359116 81.903943
124 1 76.849707 77.852911 75.805673
125 1 71.756880 64.902032 86.621555
126 1 65.974008 74.044613 64.601960
127 1 65.889573 59.878935 68.151653
128 1 77.533514 73.382578 81.250360
129 1 79.229126 83.191372 70.726247
130 1 73.944946 85.873534 73.264903
131 1 78.327929 66.038895 83.598329
132 1 73.088758 88.344053 77.094246
133 1 61.905308 81.584995 78.439989
134 1 72.291809 92.825368 77.699101
135 1 91.160415 76.811357 67.717016
136 1 77.254233 81.705171 68.656184
137 1 94.034196 72.915686 80.871083
138 1 94.714512 74.333948 73.243729
139 1 86.221769 86.736461 76.143833
140 1 82.669322 85.852452 69.161741
141 1 70.734507 72.390591 60.095796
142 1 69.495335 58.587353 69.632202
143 1 82.735872 87.839231 81.880394
144 1 71.709075 67.240026 57.984881
145 1 70.698881 86.031099 91.266592
146 1 79.831912 89.320077 81.555534
147 1 70.715808 76.073980 63.919164
148 1 81.502630 67.369227 68.788312
149 1 75.413585 94.673461 71.144663
150 1 77.736222 77.771597 62.128449
151 1 84.418053 87.642765 62.659894
152 1 94.113210 73.541837 70.047409
153 1 82.325090 75.756798 72.881288
154 1 75.251281 84.198312 67.101668
155 1 80.631185 59.142306 69.183981
156 1 84.764089 79.077787 90.592703
157 1 70.323353 89.023037 69.093154
158 1 61.884827 83.289808 67.826565
159 1 63.672561 61.937016 69.588465
160 1 65.388014 78.904761 82.741328
161 1 76.892410 74.169516 59.524046
162 1 80.030483 93.269080 72.999063
163 1 71.900536 81.611574 69.200230
164 1 73.711152 75.003860 58.957038
165 1 72.362273 63.760673 65.331616
166 1 90.012042 75.613146 69.156549
167 1 89.367719 83.678490 70.666030
168 1 63.615233 72.429337 82.835228
169 1 74.094184 62.572696 84.208822
170 1 92.289460 80.100324 82.133693
171 1 77.440750 79.637528 80.188199
172 1 78.185871 92.075490 72.952715
173 1 78.920882 74.367087 87.100964
174 1 61.480465 64.054158 72.342031
175 1 82.838511 73.583189 59.172026
176 1 67.925138 65.876039 60.819982
177 1 77.872808 91.351983 77.620922
178 1 68.791475 64.867092 91.133315
179 1 89.007174 69.450955 83.451140
180 1 83.591009 86.883796 71.710413
181 1 64.921620 87.034488 75.655507
182 1 85.164309 76.898352 91.625150
183 1 68.044526 73.864046 81.341867
184 1 68.712710 77.642034 64.235288
185 1 90.092951 86.435684 79.443929
186 1 74.072525 57.483684 73.452393
187 1 83.153805 68.709754 82.041620
188 1 70.603815 72.061820 84.152962
189 1 70.065807 88.503538 65.544525
190 1 75.970429 93.412836 76.610359
191 1 78.058740 70.826201 89.850483
192 1 78.549788 79.077014 76.454613
193 1 82.781598 72.454169 70.819002
194 1 92.365542 70.372903 71.806334
195 1 67.050566 85.954935 66.692559
196 1 66.703181 60.695725 64.222268
197 1 67.526476 74.165790 60.208542
198 1 82.789331 82.553196 88.611394
199 1 87.955630 64.070330 82.557949
200 1 64.042124 75.096327 64.643325
201 1 86.868659 85.629836 73.033018
202 1 75.998561 91.789600 69.345642
203 1 64.228951 65.884566 69.483042
204 1 78.097675 80.196548 70.407994
205 1 64.707932 74.127968 62.800666
206 1 83.009052 76.566814 91.353401
207 1 73.293704 86.292974 77.687238
208 1 74.012072 72.447555 85.194367
209 1 79.386881 62.722795 80.814474
210 1 75.713659 60.810802 74.909739
211 1 63.733590 75.613454 66.755279
212 1 81.387513 72.740986 66.007205
213 1 76.400578 63.831339 82.934361
214 1 79.917825 72.036653 60.070174
215 1 80.851455 62.097458 84.874523
216 1 89.037164 84.603283 75.364660
217 1 85.026212 79.367975 58.297873
218 1 70.488598 88.439372 62.024832
219 1 72.283470 94.808268 76.748441
220 1 84.247987 84.932217 84.506718
221 1 80.431790 69.407902 72.709073
222 1 86.495036 64.065687 78.650237
223 1 64.532284 75.082767 75.822711
224 1 79.831455 65.101164 84.902786
225 1 76.551774 61.653324 82.707609
226 1 84.471422 91.194910 75.392562
227 1 86.436844 70.877894 61.886193
228 1 66.939205 76.377212 57.167400
229 1 74.720172 79.405544 81.117740
230 1 90.575464 66.155692 84.129246
231 1 86.230838 61.149830 74.580902
232 1 82.429980 67.363552 89.502404
233 1 75.163240 81.321088 77.353673
234 1 78.796564 61.958405 73.536923
235 1 67.362395 67.962556 87.754264
236 1 63.894882 72.410604 77.498708
237 1 80.328952 82.242339 79.837651
238 1 89.703105 73.735202 78.487245
239 1 70.446435 89.931983 77.653723
240 1 75.996900 85.121633 73.482215
241 1 70.768351 77.063244 69.650239
242 1 73.480082 57.535612 82.779979
243 1 78.318485 93.339405 76.785570
244 1 81.459638 67.015311 80.156584
245 1 64.833482 75.599778 81.934007
246 1 77.612368 76.979738 91.621607
247 1 88.014458 69.650646 87.152408
248 1 62.690846 68.984620 73.857133
249 1 71.504007 57.979384 65.386771
250 1 71.973675 87.646329 69.451669
251 1 66.551175 85.402139 89.540610
252 1 83.507011 90.700646 69.826696
253 1 68.800789 61.512126 82.935968
254 1 76.518048 78.965542 83.856377
255 1 86.935221 74.889114 71.562891
256 1 80.916519 78.427034 56.555039
257 1 68.117023 82.999388 89.931544
258 1 71.061368 75.167717 73.734829
259 1 89.273175 79.248628 76.704592
260 1 66.145855 60.001596 71.867110
261 1 87.520934 60.629804 69.022376
262 1 77.273675 83.363064 67.222116
263 1 78.690909 58.698549 77.441059
264 1 79.377712 59.326266 71.732261
265 1 78.574810 83.738482 91.622617
266 1 81.881479 80.049774 82.379176
267 1 88.209641 76.875579 76.245677
268 1 85.809675 71.732116 67.925758
269 1 82.249834 83.150556 85.561204
270 1 66.634492 81.759819 87.394684
271 1 71.056346 91.514757 71.086445
272 1 80.570322 79.221706 93.910966
273 1 80.109514 65.769233 60.628296
274 1 72.865116 78.854210 58.945249
275 1 86.990029 88.449466 77.289689
276 1 85.716740 58.559410 71.278412
277 1 69.827699 79.017726 69.915470
278 1 90.942742 68.248254 78.051995
279 1 79.379854 71.409219 83.537368
280 1 92.019952 69.008119 81.318702
281 1 72.710255 65.690207 75.083628
282 1 65.379768 64.538897 82.806914
283 1 63.400812 87.027906 73.932273
284 1 76.548321 86.972717 74.549081
285 1 72.431041 73.678399 86.822560
286 1 94.565846 75.235853 79.735910
287 1 75.387527 82.625355 84.425571
288 1 83.190523 68.764577 68.964300
289 1 67.293253 85.801346 72.732075
290 1 83.253507 75.705181 85.571531
291 1 93.348279 71.861240 82.675806
292 1 86.264537 82.526144 73.371364
293 1 89.052895 72.601101 66.481323
294 1 75.845897 80.628974 85.388959
295 1 79.545778 81.175647 71.738899
296 1 86.082133 75.508063 85.935699
297 1 90.800477 63.470162 72.600505
298 1 75.075885 71.627383 75.596813
299 1 67.747210 86.776898 81.461044
300 1 88.292240 64.622340 66.758394
301 1 80.931211 83.137206 87.574999
302 1 69.793921 84.745203 89.728985
303 1 66.808759 85.955633 75.991052
304 1 72.088849 71.517225 73.830613
305 1 70.714368 92.995614 69.438412
306 1 68.506734 60.293771 72.334162
307 1 82.098064 93.607105 72.342900
308 1 72.350017 69.111855 57.023814
309 1 63.935290 82.765752 67.258162
310 1 71.221811 67.879872 77.604836
311 1 83.653350 78.645640 64.926778
312 1 72.651959 56.906178 75.028239
313 1 71.603413 67.942347 85.076390
314 1 78.847401 74.565704 73.789130
315 1 57.931281 80.824781 66.636441
316 1 88.458718 73.774115 60.291083
317 1 85.732652 91.879887 73.092469
318 1 82.064602 60.645498 75.538523
319 1 76.678430 74.294107 73.568486
320 1 63.651404 74.260225 72.006646
321 1 73.990679 57.941337 80.299777
322 1 78.631068 81.325819 60.007636
323 1 63.717538 60.223702 68.206286
324 1 63.912149 89.270294 73.134100
325 1 90.806034 66.025810 66.649765
326 1 80.913904 69.389806 69.437932
327 1 80.202371 94.412575 74.881821
328 1 83.161409 59.688703 71.529907
329 1 62.209985 87.049263 78.496300
330 1 67.679037 82.048072 62.731315
331 1 66.605836 78.934910 73.021183
332 1 77.052013 65.088455 88.274959
333 1 75.501790 59.245719 65.568398
334 1 76.751818 77.491124 71.546695
335 1 58.450456 67.622382 71.124122
336 1 73.740949 78.248465 68.243692
337 1 73.318525 65.343292 88.287348
338 1 60.141939 81.938346 67.419547
339 1 80.476115 64.582177 87.127820
340 1 71.134320 64.497839 77.369126
341 1 69.884951 91.013826 68.280087
342 1 85.586819 73.339609 75.749888
343 1 75.384758 65.920884 69.855030
344 1 77.240235 80.645790 73.880811
345 1 90.925260 67.320331 82.300508
346 1 71.627614 87.694680 87.815396
347 1 78.440339 73.857354 93.334560
348 1 64.004327 77.194773 65.261098
349 1 86.133930 77.640632 87.427120
350 1 72.152765 91.732106 75.795628
351 1 68.227149 71.541177 91.617600
352 1 75.069184 73.071420 92.459304
353 1 64.284636 63.166890 73.884800
354 1 81.869142 71.237408 60.893345
355 1 70.762553 71.351929 76.989401
356 1 88.117592 77.262387 73.020705
357 1 80.204411 73.421792 90.992076
358 1 82.071241 78.941336 87.999708
359 1 84.222425 70.917558 86.514313
360 1 62.326218 75.539732 70.802786
361 1 62.569742 60.320152 79.897182
362 1 64.347100 77.003863 68.647183
363 1 81.553811 86.610383 84.060281
364 1 74.198609 70.630475 80.523153
365 1 80.034712 61.456693 82.939077
366 1 93.940218 80.400341 71.018749
367 1 76.323494 65.138830 92.439809
368 1 73.387612 84.826448 79.325837
369 1 84.361167 82.056243 72.359068
370 1 65.776235 75.615571 84.951303
371 1 67.733951 72.845412 74.552253
372 1 70.628336 78.445507 67.947758
373 1 81.142424 77.271155 68.237250
374 1 56.384070 80.416309 70.541273
375 1 56.348233 68.394451 76.871758
376 1 61.095967 73.836939 60.890123
377 1 83.667176 66.089572 76.323565
378 1 58.839288 66.188231 67.604146
379 1 80.837875 72.394161 84.971908
380 1 87.221373 67.400907 75.257367
381 1 63.596628 71.884945 79.979607
382 1 78.614200 58.484843 85.743659
383 1 85.217229 64.038076 70.405785
384 1 86.997841 68.115559 73.084595
385 1 59.112269 79.229365 67.580605
386 1 59.854772 67.700644 66.372693
387 1 73.339979 84.997791 66.370499
388 1 77.312335 76.344689 60.250039
389 1 68.552939 85.679157 61.674572
390 1 64.273575 61.817760 75.618528
391 1 72.816172 57.947270 77.877320
392 1 71.702464 60.873492 61.467713
393 1 82.597193 93.616950 75.162317
394 1 66.022570 66.230040 59.763312
395 1 62.246052 81.999250 66.085140
396 1 88.333856 82.488103 74.115287
397 1 74.229039 72.985524 59.658219
398 1 92.276980 77.555334 79.152937
399 1 59.084531 63.631444 78.248590
400 1 72.146833 60.611889 77.021542
401 1 79.238189 57.132730 71.730684
402 1 77.431500 58.967485 75.657503
403 1 82.110782 80.833102 69.235298
404 1 69.256113 86.760709 72.490574
405 1 87.627008 74.075715 79.115643
406 1 78.570341 66.559518 77.794403
407 1 94.831203 76.199703 75.356374
408 1 60.074289 88.028352 77.634518
409 1 67.484233 83.093316 76.464850
410 1 78.417420 90.097413 62.345758
411 1 77.037105 77.205873 85.045174
412 1 79.668529 77.197230 70.089806
413 1 62.647815 72.184025 66.785893
414 1 72.231421 76.535743 61.970825
415 1 69.819829 58.470496 73.698367
416 1 74.331510 94.054516 74.866961
417 1 76.564276 75.343876 81.109544
418 1 83.088892 61.885160 71.576592
419 1 80.101468 92.818362 78.232469
420 1 76.830397 73.001217 70.430797
421 1 71.877953 77.791617 74.002803
422 1 71.934905 74.791462 79.225049
423 1 78.738896 76.656334 71.996804
424 1 87.774959 83.687013 72.276372
425 1 79.265734 67.796221 73.621678
426 1 85.910332 80.786010 62.170798
427 1 88.155181 89.663562 71.022393
428 1 91.220442 63.868707 78.964773
429 1 73.974039 73.361595 57.506152
430 1 57.471196 72.264052 74.013190
431 1 73.073789 68.972938 77.212975
432 1 66.907669 72.744314 69.756711
433 1 73.568291 67.182572 56.810968
434 1 71.874616 73.673246 88.960885
435 1 78.567599 91.718353 66.235561
436 1 73.282131 70.374297 89.441647
437 1 66.366535 63.837997 73.593300
438 1 69.786216 78.530450 92.604928
439 1 70.162708 64.962426 69.471668
440 1 71.301247 94.317130 79.110246
441 1 59.492302 87.021162 75.764210
442 1 66.802157 74.058683 79.540804
443 1 79.081547 87.256896 81.530118
444 1 87.739336 75.703369 61.121256
445 1 92.701653 72.501581 71.370520
446 1 68.878185 59.292678 64.534414
447 1 71.325763 61.515308 87.767592
448 1 81.284601 75.346218 69.346572
449 1 80.637342 66.088289 78.366111
450 1 75.060843 84.133489 75.225763
451 1 76.051810 84.991737 58.907655
452 1 88.553624 82.826774 80.022326
453 1 87.050181 62.465962 71.258573
454 1 91.153944 81.576055 73.799309
455 1 80.039864 80.882393 81.530922
456 1 87.903406 89.070043 81.479105
457 1 83.009117 76.711151 69.305409
458 1 91.993513 83.557129 72.022078
459 1 63.177436 71.078407 74.401193
460 1 66.981158 70.879569 70.906474
461 1 76.454135 81.243702 59.719146
462 1 78.905943 91.324668 64.102426
463 1 83.459489 70.752973 82.774108
464 1 81.780694 62.306173 68.296277
465 1 82.970857 69.105153 77.599161
466 1 71.554668 74.750676 82.787849
467 1 69.547163 57.057322 71.741687
468 1 57.637235 82.708332 80.228226
469 1 62.715951 64.455384 78.351133
470 1 57.665846 84.069482 75.767924
471 1 82.119113 72.793923 77.986249
472 1 89.913226 82.999427 72.679867
473 1 69.872643 88.505489 76.075406
474 1 78.289315 82.941643 77.429558
475 1 59.896513 84.700948 75.678900
476 1 85.985071 83.721019 64.710912
477 1 71.903619 77.796445 92.544584
478 1 76.280034 69.517034 71.872066
479 1 81.219599 60.359142 72.348887
480 1 79.370692 82.297012 74.183179
481 1 92.381017 78.550087 84.568581
482 1 84.191743 82.439834 84.705277
483 1 68.708847 71.500749 69.572484
484 1 73.653700 67.281989 84.490570
485 1 84.529317 72.556489 85.081745
486 1 69.183473 94.141443 73.963590
487 1 74.475154 86.006719 83.729747
488 1 85.226553 79.124418 66.384601
489 1 83.698279 84.860896 61.278711
490 1 73.532484 62.222111 69.614643
491 1 83.611747 75.763738 66.953182
492 1 91.125320 71.030925 81.398568
493 1 90.933148 78.069511 77.487226
494 1 82.387894 83.509252 64.912342
495 1 93.704348 76.298764 67.922803
496 1 74.138338 84.502161 88.842906
497 1 65.721144 82.416613 79.195160
498 1 84.356052 81.661840 70.196710
499 1 70.786357 71.695519 81.834560
500 1 59.853250 64.344642 68.240401
501 1 77.569154 68.165963 91.452421
502 1 73.604304 78.472803 78.595756
503 1 74.388367 89.929073 76.374505
504 1 69.163429 65.700081 72.821159
505 1 72.672834 57.206516 70.660339
506 1 80.686202 70.220592 66.083240
507 1 71.448949 84.517269 64.039935
508 1 77.385439 75.314983 94.687851
509 1 73.744208 94.657889 72.572130
510 1 78.442588 66.481410 79.976107
511 1 77.722830 64.514957 76.620103
512 1 71.868856 77.224711 84.620724
513 1 84.737483 73.617030 67.565023
514 1 72.054509 65.780825 91.019075
515 1 73.678442 67.579986 75.636130
516 1 69.695053 91.042716 80.213662
517 1 65.573715 78.108389 88.269482
518 1 73.356148 82.812932 70.315189
519 1 55.841477 73.445214 72.711722
520 1 58.335113 77.313077 75.363310
521 1 71.898905 64.308715 61.452424
522 1 84.483090 77.740416 88.870036
523 1 65.012578 68.440759 85.678018
524 1 74.539311 72.712352 79.928118
525 1 76.821220 87.137034 66.849414
526 1 75.385196 82.108540 82.314831
527 1 65.150885 79.900660 59.281693
528 1 80.603328 82.864449 84.112062
529 1 81.302654 74.044482 94.111976
530 1 63.452423 64.791313 86.032590
531 1 69.442448 67.529156 61.087441
532 1 80.461836 72.137568 76.634309
533 1 84.353364 87.164819 69.684474
534 1 81.296206 73.072617 69.322778
535 1 78.253656 88.745633 80.146564
536 1 80.737764 79.087924 76.250629
537 1 74.872502 75.070854 91.327274
538 1 81.019912 74.298550 73.890488
539 1 64.133425 85.977801 77.416218
540 1 72.139914 67.681852 82.965249
541 1 73.033729 71.427187 57.953879
542 1 86.368499 76.232390 58.637580
543 1 77.734371 76.042717 70.147033
544 1 80.947934 78.334525 74.192381
545 1 65.924434 73.386881 75.678650
546 1 78.883382 73.468215 82.981426
547 1 72.577761 63.310851 87.893483
548 1 66.598640 71.928786 77.174010
549 1 69.065967 60.904854 63.054524
550 1 85.082713 60.897514 76.437754
551 1 76.260454 88.033235 81.484843
552 1 65.159740 65.909895 80.556483
553 1 68.620780 85.124016 87.773953
554 1 71.549680 59.054959 70.258773
555 1 80.288854 72.642389 87.087612
556 1 72.660387 66.723080 69.156704
557 1 90.251831 77.567396 63.987618
558 1 58.213285 85.768320 74.487782
559 1 66.034738 76.030663 63.680937
560 1 61.075748 83.903699 64.808724
561 1 81.125696 74.738995 63.177643
562 1 75.149745 72.405849 63.098916
563 1 81.284265 62.439739 76.864023
564 1 91.578909 76.763724 74.609003
565 1 85.056941 68.394244 62.617332
566 1 66.905375 71.428317 73.063923
567 1 83.861548 70.762604 67.641900
568 1 77.158905 57.636798 65.546268
569 1 65.474749 62.389819 63.547625
570 1 81.587380 75.932438 75.246181
571 1 68.016846 68.800857 63.507286
572 1 72.797449 59.709307 87.139117
573 1 86.689954 76.382987 69.970516
574 1 87.424690 84.535525 70.119426
575 1 69.270769 87.371204 60.468497
576 1 67.909045 69.591371 73.715168
577 1 73.214809 66.914264 72.563489
578 1 89.216771 64.304306 84.343431
579 1 78.331341 63.250975 84.925417
580 1 66.910419 91.237853 74.616684
581 1 75.851674 63.778486 59.747847
582 1 67.862610 71.997216 60.378261
583 1 90.473999 86.371142 69.103836
584 1 89.973122 67.918646 79.998160
585 1 62.239314 62.412145 73.593525
586 1 73.016816 76.270761 67.519018
587 1 79.916914 64.221979 75.464476
588 1 88.154601 80.173267 78.944805
589 1 67.996153 76.743477 84.362363
590 1 80.546367 83.987988 72.297026
591 1 60.727616 69.253878 65.089961
592 1 67.853479 78.542721 77.585678
593 1 73.149069 72.401029 76.311758
594 1 66.961104 79.646537 79.251412
595 1 59.589985 76.963765 79.967175
596 1 61.327924 83.464571 79.421111
597 1 68.358190 77.493043 58.407080
598 1 79.219549 59.809624 74.210236
599 1 80.228807 90.314998 65.729332
600 1 74.748439 82.420050 89.427959
601 1 85.044088 78.472600 74.406792
602 1 83.394115 67.403235 86.968003
603 1 72.977416 76.896718 59.934142
604 1 74.712338 93.633767 82.531369
605 1 73.532068 61.436882 88.530732
606 1 63.299651 76.231454 80.059165
607 1 66.159076 79.542783 68.507328
608 1 85.238420 76.925218 76.805311
609 1 91.013538 85.128299 70.836877
610 1 73.232349 74.740914 55.213664
611 1 78.302856 60.452762 83.863089
612 1 79.941743 71.571324 81.429795
613 1 72.734011 68.736344 59.224593
614 1 58.493622 85.599601 77.109728
615 1 75.234993 85.890467 65.697188
616 1 81.889232 90.478465 68.111693
617 1 85.528423 75.980195 64.024557
618 1 83.993104 60.606833 64.554420
619 1 65.604134 76.385364 77.730182
620 1 75.241209 71.045814 59.766984
621 1 86.794985 80.553902 71.847358
622 1 72.428430 85.084630 83.626574
623 1 76.822658 85.396405 78.235185
624 1 79.889368 77.577091 77.612686
625 1 64.926991 85.212722 65.698852
626 1 77.961178 74.612607 71.790455
627 1 63.196972 68.088023 88.701638
628 1 61.937842 76.809673 82.517657
629 1 78.432554 71.238534 67.741260
630 1 72.878537 71.468216 67.782026
631 1 77.126094 94.786156 77.923450
632 1 66.593602 77.897182 80.526893
633 1 77.634738 78.183063 69.664883
634 1 64.187432 82.469450 77.055813
635 1 66.942228 79.973807 84.043552
636 1 70.878799 69.843059 78.567835
637 1 65.400524 74.421118 73.752120
638 1 66.873310 85.011981 62.927731
639 1 68.127695 88.708412 72.697749
640 1 63.466130 59.546158 70.284407
641 1 78.964296 67.264657 68.726758
642 1 72.023827 76.986826 89.177100
643 1 73.931897 81.958420 66.315348
644 1 83.488321 62.379533 78.395631
645 1 81.498720 67.305971 82.336919
646 1 92.213952 77.400587 65.260567
647 1 79.448376 69.941744 75.933584
648 1 73.867384 76.940500 57.927302
649 1 81.716013 74.581186 67.333020
650 1 70.620267 83.708095 58.271824
651 1 65.585589 84.031902 75.892681
652 1 87.299015 81.308273 83.821483
653 1 59.758215 64.938824 73.379895
654 1 76.348444 74.078033 65.409253
655 1 72.922566 66.712912 61.652908
656 1 71.403039 65.696724 72.815883
657 1 91.392719 80.096683 78.202524
658 1 69.018257 63.561828 67.744285
659 1 84.546954 84.000725 79.739851
660 1 63.536004 69.416795 86.982704
661 1 59.517025 81.462828 75.581445
662 1 76.111112 90.381010 73.022578
663 1 75.254376 69.701531 76.848089
664 1 64.327499 66.950750 73.525411
665 1 88.931965 69.868693 74.432000
666 1 85.470116 68.879539 64.722713
667 1 69.017801 93.522604 79.886821
668 1 68.206801 73.508396 65.288622
669 1 83.402457 66.615047 72.663192
670 1 63.864730 72.708184 61.309482
671 1 78.895077 67.596100 60.572131
672 1 91.605374 65.067783 71.320452
673 1 64.296048 72.589382 73.264775
674 1 79.890964 67.898005 76.591414
675 1 82.673308 83.458303 72.291865
676 1 64.714956 60.754470 79.675362
677 1 74.982097 65.530045 86.866309
678 1 92.430386 75.063517 80.555227
679 1 85.010124 69.234706 78.403120
680 1 72.563374 59.030225 73.863340
681 1 82.585784 76.259364 79.649927
682 1 74.238685 78.107307 65.583094
683 1 83.300992 78.884231 73.132570
684 1 84.725737 68.782086 67.249429
685 1 75.317870 65.737546 63.921403
686 1 93.096674 66.836372 77.933440
687 1 89.309915 84.753152 68.175182
688 1 86.362399 67.623310 79.050790
689 1 80.387131 79.138933 70.816643
690 1 79.849603 64.141630 77.691970
691 1 75.046254 77.031266 79.407242
692 1 81.229943 85.413697 89.172314
693 1 73.879423 75.179507 65.819138
694 1 80.681781 89.011918 72.517884
695 1 73.387316 58.777922 75.906914
696 1 69.776974 77.642966 90.592654
697 1 89.530449 70.191334 64.298355
698 1 79.284782 85.081081 81.309671
699 1 69.913595 64.640342 79.168253
700 1 68.363007 75.249960 58.489772
701 1 71.034346 67.289792 87.091415
702 1 62.431693 79.285714 60.231845
703 1 62.339312 85.269477 84.102330
704 1 64.900127 78.620065 61.038822
705 1 72.395822 61.846450 85.399918
706 1 82.339197 88.650333 62.343389
707 1 68.068613 88.506108 64.632827
708 1 87.069906 72.330172 74.485447
709 1 88.487091 70.474828 89.256532
710 1 81.374088 85.146552 60.744755
711 1 70.126027 70.192803 68.329380
712 1 79.090921 70.677957 73.897840
713 1 64.992061 74.087047 70.225017
714 1 90.553286 81.190826 71.098458
715 1 71.758763 67.770140 63.191375
716 1 70.319172 94.481343 75.816306
717 1 57.717286 80.739785 68.821489
718 1 91.568796 82.489131 83.649161
719 1 76.705220 90.296247 80.210846
720 1 82.679090 62.717489 83.305749
721 1 82.651871 66.114325 91.336299
722 1 73.061408 65.762160 81.806707
723 1 59.224371 82.960000 83.232814
724 1 84.402401 89.934526 79.832579
725 1 60.118645 61.994310 77.204191
726 1 84.610424 70.836153 64.205002
727 1 74.443443 67.348133 82.440945
728 1 58.270626 84.316322 69.547746
729 1 82.902319 70.721730 91.247684
730 1 75.023357 74.998399 82.634301
731 1 71.205261 73.394057 77.668825
732 1 69.023082 89.226946 67.330626
733 1 68.116289 82.950216 92.129534
734 1 78.373058 62.882167 82.758286
735 1 70.121753 60.307323 78.988572
736 1 81.415811 61.005395 70.034809
737 1 61.956932 79.472898 70.421131
738 1 84.473058 84.629387 89.983670
739 1 59.394856 66.208557 69.730772
740 1 62.983750 74.710022 61.570255
741 1 85.660949 64.380048 65.677320
742 1 60.369496 76.292534 76.037120
743 1 94.712180 72.374047 72.245769
744 1 86.309793 65.496980 62.649834
745 1 59.602555 80.446482 86.543097
746 1 65.791522 80.937444 62.943593
747 1 69.203922 90.445037 70.346273
748 1 61.109116 85.051018 71.507397
749 1 86.720503 77.512023 66.441904
750 1 58.981719 73.922715 67.017099
751 1 69.399542 81.578869 58.870508
752 1 86.866950 75.288362 83.595721
753 1 70.771750 76.981677 75.714059
754 1 75.617581 83.854921 64.963127
755 1 60.637227 68.004152 75.063345
756 1 79.524692 62.451335 68.705198
757 1 66.657162 61.480038 82.444853
758 1 71.851633 81.215025 67.039956
759 1 86.563413 89.232323 75.279718
760 1 61.845163 90.052188 75.285616
761 1 67.925880 77.360199 92.694205
762 1 61.534095 71.601298 64.941641
763 1 79.972943 74.992325 79.309364
764 1 74.468177 85.155992 81.713454
765 1 58.777334 80.912784 80.782293
766 1 59.166855 84.715680 81.890957
767 1 85.006543 83.177632 82.805668
768 1 74.607532 58.208891 70.368606
769 1 58.398567 79.389521 65.011401
770 1 71.850740 73.055261 55.492028
771 1 73.051780 87.115714 82.242170
772 1 69.486207 63.554476 83.394957
773 1 59.384124 71.710024 73.091385
774 1 87.860951 68.240619 81.964547
775 1 63.018207 69.696586 76.105650
776 1 82.353987 73.374629 81.892796
777 1 89.384620 86.979326 76.458889
778 1 76.075612 74.395431 63.252495
779 1 71.430595 55.777488 78.181578
780 1 85.113230 60.672357 71.298466
781 1 69.612693 71.309211 80.026344
782 1 89.904470 64.862004 74.096557
783 1 71.185109 71.165199 93.654699
784 1 82.951106 67.062008 83.938192
785 1 83.460566 80.686458 89.851924
786 1 58.718814 70.827239 76.613172
787 1 69.705493 79.321193 89.177423
788 1 86.619306 72.592198 60.521398
789 1 60.049215 79.908376 79.169695
790 1 79.457601 83.566250 67.385829
791 1 71.139175 67.885312 68.073554
792 1 67.991532 73.018105 86.386544
793 1 71.021150 71.960059 57.207339
794 1 83.743963 88.265477 73.457710
795 1 86.381959 85.635058 68.528753
796 1 60.881758 81.406326 83.163541
797 1 70.622102 66.983029 81.526895
798 1 72.706659 92.537150 68.629162
799 1 73.194114 79.451451 84.604603
800 1 81.367222 81.016119 87.936612
801 1 77.439544 74.777258 85.511472
802 1 77.831887 71.131925 69.853539
803 1 86.197427 81.761820 86.173482
804 1 71.205758 73.340416 93.077063
805 1 75.834907 86.456137 71.751821
806 1 66.320760 77.132054 86.447143
807 1 74.805242 84.709509 77.755780
808 1 58.192319 68.503997 75.682039
809 1 77.839310 71.328956 81.981176
810 1 64.980489 82.917300 71.407897
811 1 90.617311 72.893844 72.472294
812 1 75.846889 85.959579 76.344799
813 1 87.336510 83.110729 78.212438
814 1 64.474615 70.880459 91.540303
815 1 82.791534 81.547445 76.524408
816 1 93.593550 71.401750 68.437178
817 1 62.816638 74.394628 74.031906
818 1 85.850027 63.611656 83.000386
819 1 85.495522 66.525708 73.303845
820 1 65.708645 59.629938 83.161535
821 1 74.997219 64.953970 78.088303
822 1 81.911263 63.424614 75.005735
823 1 69.502165 94.079474 77.816387
824 1 81.599616 68.910446 75.655098
825 1 86.230659 88.952897 83.293695
826 1 78.420745 68.534270 62.502312
827 1 65.621995 66.700115 76.803410
828 1 78.883841 80.211487 88.610742
829 1 76.160149 91.768828 86.090703
830 1 66.086712 72.750301 87.446078
831 1 76.257838 64.392524 72.777361