LAMMPS (29 Aug 2024 - Update 1)
##########################################
# USER-SPECIFIED VARIABLES
##########################################

variable tstep               equal  0.5                                        # timestep in fs
variable run_steps           equal  10000                                      # Number of steps to run
variable temperature         equal  3000                                       # Temperature (K)
variable pressure            equal  296077                                     # Target pressure (atm)

variable io_freq             equal  100                                        # Frequency of dumping trajectory (500 steps, 250 fs)

variable data_file           string /scratch/08034/tg873340/LAMMPS_test/lammps_data_files/diamond_3.21gcc_512atoms.data.in
variable param_file          string /scratch/08034/tg873340/LAMMPS_test/chimes_parameter_files/published_params.Carbon-2.0.Small.2+3+4b.Tersoff.txt

########################################
# GENERAL CONTROLS
########################################

units           real                          # Required for CHIMES pair style
newton          on                            # Required for CHIMES pair style
atom_style      atomic                        # Required for CHIMES pair style
atom_modify     sort 0 0.0                    # Prevent sorting (to maintain 3b parent/neighbor relationships)
atom_modify     map array                     # May improve efficiency

neighbor        1.0 bin
neigh_modify    delay 0 every 1 check yes

########################################
# INITIALIZATION CONTROLS
########################################

read_data       ${data_file}
read_data       /scratch/08034/tg873340/LAMMPS_test/lammps_data_files/diamond_3.21gcc_512atoms.data.in
Reading data file ...
  orthogonal box = (0 0 0) to (14.69002 14.69002 14.69002)
  1 by 1 by 1 MPI processor grid
  reading atoms ...
  512 atoms
  read_data CPU = 0.002 seconds
velocity        all create ${temperature} 1234 dist gaussian mom yes rot yes loop all  # Assign initial velocity (comment this line out when reading from a restart file)
velocity        all create 3000 1234 dist gaussian mom yes rot yes loop all  


########################################
# FORCE FIELD CONTROLS
########################################

pair_style      chimesFF
pair_coeff      * * ${param_file}
pair_coeff      * * /scratch/08034/tg873340/LAMMPS_test/chimes_parameter_files/published_params.Carbon-2.0.Small.2+3+4b.Tersoff.txt


########################################
# RESTART CONTROLS
########################################

restart         ${io_freq} a.restart b.restart	 # Write restart files
restart         100 a.restart b.restart	 

########################################
# RUN, DUMP, AND THERMO CONTROLS
########################################

##### Set the ensemble
variable temp_damp  equal  v_tstep*100.0	# Temperature damping coefficient
variable press_damp equal  v_tstep*1000.0	# Pressure damping coefficient
fix             1 all nvt temp ${temperature} ${temperature} ${temp_damp}
fix             1 all nvt temp 3000 ${temperature} ${temp_damp}
fix             1 all nvt temp 3000 3000 ${temp_damp}
fix             1 all nvt temp 3000 3000 50

##### Define thermo output
variable e_ensemble        equal f_1
variable e_conserve        equal ke+pe+v_e_ensemble
thermo_style    custom step time temp press density ke pe etotal v_e_ensemble v_e_conserve econserve
thermo_modify   line one format float %20.5f flush yes
thermo          ${io_freq}
thermo          100

##### Dump all atoms
#dump            dump_1 carbon ${io_freq} traj.lammpstrj id type element xu yu zu vx vy vz
#dump_modify     dump_1 sort id element C

##### Run the simulation

timestep        ${tstep}
timestep        0.5
run             ${run_steps} upto
run             10000 upto

CITE-CITE-CITE-CITE-CITE-CITE-CITE-CITE-CITE-CITE-CITE-CITE-CITE

Your simulation uses code contributions which should be cited:

- Type Label Framework: https://doi.org/10.1021/acs.jpcb.3c08419

@Article{Gissinger24,
 author = {Jacob R. Gissinger, Ilia Nikiforov, Yaser Afshar, Brendon Waters, Moon-ki Choi, Daniel S. Karls, Alexander Stukowski, Wonpil Im, Hendrik Heinz, Axel Kohlmeyer, and Ellad B. Tadmor},
 title = {Type Label Framework for Bonded Force Fields in LAMMPS},
 journal = {J. Phys. Chem. B},
 year =    2024,
 volume =  128,
 number =  13,
 pages =   {3282–-3297}
}

CITE-CITE-CITE-CITE-CITE-CITE-CITE-CITE-CITE-CITE-CITE-CITE-CITE

Generated 0 of 0 mixed pair_coeff terms from geometric mixing rule
Neighbor list info ...
  update: every = 1 steps, delay = 0 steps, check = yes
  max neighbors/atom: 2000, page size: 100000
  master list distance cutoff = 6
  ghost atom cutoff = 6
  binsize = 3, bins = 5 5 5
  1 neighbor lists, perpetual/occasional/extra = 1 0 0
  (1) pair chimesFF, perpetual
      attributes: full, newton on, ghost
      pair build: full/bin/ghost
      stencil: full/ghost/bin/3d
      bin: standard
Per MPI rank memory allocation (min/avg/max) = 4.199 | 4.199 | 4.199 Mbytes
   Step          Time           Temp          Press         Density         KinEng         PotEng         TotEng      v_e_ensemble   v_e_conserve    Econserve   
         0               0.00000           3000.00000        -243441.37095              3.22122           4569.58181        -106757.39823        -102187.81642              0.00000        -102187.81642        -102187.81642
       100              50.00000           1694.10198        -188253.57051              3.22122           2580.44586        -104287.24403        -101706.79817           -476.79294        -102183.59111        -102183.59111
       200             100.00000           1900.03145        -175403.14082              3.22122           2894.11639        -103778.49173        -100884.37534          -1298.22021        -102182.59555        -102182.59555
       300             150.00000           2033.40637        -151107.19647              3.22122           3097.27225        -103018.60065         -99921.32840          -2260.09833        -102181.42673        -102181.42673
       400             200.00000           2345.19283        -132436.24933              3.22122           3572.18349        -102439.55445         -98867.37096          -3313.33172        -102180.70268        -102180.70268
       500             250.00000           2624.00655         -99223.92049              3.22122           3996.87086        -101850.49235         -97853.62149          -4326.04768        -102179.66917        -102179.66917
       600             300.00000           3332.63377         -93377.64702              3.22122           5076.24755        -102081.77605         -97005.52850          -5174.55080        -102180.07930        -102180.07930
       700             350.00000           3295.99911         -74878.99056              3.22122           5020.44586        -101553.72582         -96533.27996          -5645.64339        -102178.92336        -102178.92336
       800             400.00000           3179.20901         -70229.70495              3.22122           4842.55188        -101461.89089         -96619.33900          -5559.59340        -102178.93241        -102178.93241
       900             450.00000           2995.37655         -90525.43650              3.22122           4562.53939        -101699.29825         -97136.75885          -5042.85368        -102179.61253        -102179.61253
      1000             500.00000           2899.32805         -99546.82547              3.22122           4416.23890        -101990.90621         -97574.66731          -4605.04622        -102179.71353        -102179.71353
      1100             550.00000           2843.49877        -108802.77489              3.22122           4331.20008        -101991.82446         -97660.62439          -4519.07147        -102179.69586        -102179.69586
      1200             600.00000           3002.01176         -98990.41106              3.22122           4572.64611        -101935.87400         -97363.22789          -4816.07350        -102179.30139        -102179.30139
      1300             650.00000           3152.86995         -91369.03018              3.22122           4802.43238        -101761.77586         -96959.34348          -5220.35201        -102179.69548        -102179.69548
      1400             700.00000           3296.65899         -97186.99464              3.22122           5021.45098        -101804.50346         -96783.05248          -5396.46369        -102179.51617        -102179.51617
      1500             750.00000           3079.21615         -92438.58862              3.22122           4690.24337        -101632.32129         -96942.07792          -5237.13759        -102179.21551        -102179.21551
      1600             800.00000           2893.41944        -103055.76328              3.22122           4407.23894        -101677.17341         -97269.93447          -4909.54263        -102179.47709        -102179.47709
      1700             850.00000           2945.45540         -98899.08354              3.22122           4486.49981        -101985.09910         -97498.59929          -4681.14172        -102179.74101        -102179.74101
      1800             900.00000           2967.04487        -103866.10042              3.22122           4519.38476        -102025.40960         -97506.02485          -4673.87713        -102179.90198        -102179.90198
      1900             950.00000           3078.63674         -96527.32068              3.22122           4689.36081        -101952.33122         -97262.97041          -4916.67717        -102179.64758        -102179.64758
      2000            1000.00000           3183.21916         -90887.63569              3.22122           4848.66013        -101813.18141         -96964.52128          -5214.86727        -102179.38855        -102179.38855
      2100            1050.00000           2891.74057         -73114.49185              3.22122           4404.68171        -101252.81177         -96848.13007          -5330.63391        -102178.76397        -102178.76397
      2200            1100.00000           3176.93586         -89880.00111              3.22122           4839.08944        -101834.10572         -96995.01629          -5184.44893        -102179.46522        -102179.46522
      2300            1150.00000           2764.33108         -86442.07307              3.22122           4210.61234        -101507.48979         -97296.87745          -4882.51177        -102179.38922        -102179.38922
      2400            1200.00000           3006.99197         -98774.70463              3.22122           4580.23193        -102036.26925         -97456.03731          -4723.72183        -102179.75915        -102179.75915
      2500            1250.00000           2981.22336        -100322.03278              3.22122           4540.98135        -101928.66670         -97387.68535          -4792.00401        -102179.68937        -102179.68937
      2600            1300.00000           3118.88711         -87005.25585              3.22122           4750.66994        -101866.56957         -97115.89963          -5063.65535        -102179.55498        -102179.55498
      2700            1350.00000           3088.16795         -81115.09095              3.22122           4703.87869        -101629.27863         -96925.39994          -5253.72603        -102179.12597        -102179.12597
      2800            1400.00000           3070.01704         -87776.04815              3.22122           4676.23134        -101623.13562         -96946.90428          -5232.29849        -102179.20277        -102179.20277
      2900            1450.00000           2935.27498         -91117.34450              3.22122           4470.99305        -101785.65923         -97314.66618          -4864.61123        -102179.27741        -102179.27741
      3000            1500.00000           2867.82475        -101580.17130              3.22122           4368.25326        -101885.79648         -97517.54322          -4661.98689        -102179.53011        -102179.53011
      3100            1550.00000           2902.73639         -92918.30071              3.22122           4421.43046        -101821.63607         -97400.20561          -4778.99155        -102179.19716        -102179.19716
      3200            1600.00000           3044.56260         -97327.47046              3.22122           4637.45929        -101829.23141         -97191.77212          -4987.54303        -102179.31515        -102179.31515
      3300            1650.00000           3033.07353         -95070.71764              3.22122           4619.95921        -101734.16070         -97114.20148          -5065.02268        -102179.22417        -102179.22417
      3400            1700.00000           3014.22391         -95648.07369              3.22122           4591.24757        -101723.01192         -97131.76434          -5047.53299        -102179.29734        -102179.29734
      3500            1750.00000           2854.01194         -85814.91160              3.22122           4347.21368        -101528.72553         -97181.51184          -4997.47787        -102178.98971        -102178.98971
      3600            1800.00000           3056.01487         -88907.00132              3.22122           4654.90331        -101932.97253         -97278.06922          -4901.30177        -102179.37098        -102179.37098
      3700            1850.00000           2838.70435         -98687.54768              3.22122           4323.89725        -101915.84224         -97591.94498          -4587.53138        -102179.47637        -102179.47637
      3800            1900.00000           2827.79873         -96217.91326              3.22122           4307.28588        -101952.20886         -97644.92298          -4534.56590        -102179.48888        -102179.48888
      3900            1950.00000           2983.53559        -102075.13625              3.22122           4544.50332        -101836.02142         -97291.51810          -4887.83484        -102179.35294        -102179.35294
      4000            2000.00000           2895.48367         -90142.27612              3.22122           4410.38317        -101485.26423         -97074.88106          -5103.73881        -102178.61988        -102178.61988
      4100            2050.00000           2944.03070         -87934.91257              3.22122           4484.32971        -101548.32449         -97063.99478          -5114.80041        -102178.79519        -102178.79519
      4200            2100.00000           2805.61625         -95754.74837              3.22122           4273.49766        -101466.86371         -97193.36605          -4985.34286        -102178.70891        -102178.70891
      4300            2150.00000           2937.98689         -98193.79219              3.22122           4475.12381        -102003.25700         -97528.13319          -4651.21023        -102179.34342        -102179.34342
      4400            2200.00000           2740.08494        -103110.63846              3.22122           4173.68076        -101864.43397         -97690.75321          -4488.47655        -102179.22976        -102179.22976
      4500            2250.00000           2929.11074         -91032.86885              3.22122           4461.60371        -101737.15650         -97275.55278          -4903.83815        -102179.39093        -102179.39093
      4600            2300.00000           3080.55184         -86642.11315              3.22122           4692.27788        -101711.10344         -97018.82556          -5160.21627        -102179.04183        -102179.04183
      4700            2350.00000           3075.74877         -88345.44973              3.22122           4684.96188        -101728.38904         -97043.42716          -5135.96589        -102179.39305        -102179.39305
      4800            2400.00000           2967.01571         -91215.16822              3.22122           4519.34033        -101747.05043         -97227.71010          -4951.58849        -102179.29859        -102179.29859
      4900            2450.00000           2964.57503         -97670.72807              3.22122           4515.62270        -101962.98863         -97447.36593          -4732.27318        -102179.63911        -102179.63911
      5000            2500.00000           3014.50046        -105747.74301              3.22122           4591.66882        -102098.27476         -97506.60594          -4673.17647        -102179.78241        -102179.78241
      5100            2550.00000           2969.60367         -89911.58126              3.22122           4523.28231        -101651.75902         -97128.47671          -5050.33050        -102178.80721        -102178.80721
      5200            2600.00000           2978.75685         -84571.79473              3.22122           4537.22436        -101415.61919         -96878.39482          -5300.26118        -102178.65601        -102178.65601
      5300            2650.00000           3025.90308         -80749.92316              3.22122           4609.03721        -101567.83842         -96958.80121          -5219.90729        -102178.70850        -102178.70850
      5400            2700.00000           3041.38610         -94820.64182              3.22122           4632.62087        -101885.86694         -97253.24607          -4926.34082        -102179.58689        -102179.58689
      5500            2750.00000           2802.40488         -94148.21489              3.22122           4268.60612        -101700.50511         -97431.89900          -4746.90701        -102178.80600        -102178.80600
      5600            2800.00000           3017.74326         -89705.80524              3.22122           4596.60823        -101965.80070         -97369.19247          -4810.33673        -102179.52921        -102179.52921
      5700            2850.00000           3038.20685         -92610.64517              3.22122           4627.77825        -101897.63003         -97269.85178          -4909.29367        -102179.14545        -102179.14545
      5800            2900.00000           3015.39843         -94881.10004              3.22122           4593.03660        -101775.52987         -97182.49327          -4996.61493        -102179.10820        -102179.10820
      5900            2950.00000           2989.31424         -80525.62504              3.22122           4553.30533        -101638.10122         -97084.79589          -5094.18426        -102178.98016        -102178.98016
      6000            3000.00000           3018.79272         -87990.50987              3.22122           4598.20676        -101521.08673         -96922.87997          -5256.07878        -102178.95875        -102178.95875
      6100            3050.00000           3111.97988         -79571.13008              3.22122           4740.14888        -101422.32285         -96682.17397          -5496.25861        -102178.43258        -102178.43258
      6200            3100.00000           3021.47046         -79075.17789              3.22122           4602.28549        -101353.21318         -96750.92770          -5427.47314        -102178.40083        -102178.40083
      6300            3150.00000           2997.29257         -91870.88708              3.22122           4565.45787        -101756.41256         -97190.95469          -4988.03981        -102178.99450        -102178.99450
      6400            3200.00000           2840.30028         -96980.57382              3.22122           4326.32816        -101653.49789         -97327.16973          -4851.76833        -102178.93806        -102178.93806
      6500            3250.00000           3066.03187         -97504.59222              3.22122           4670.16115        -101963.22710         -97293.06596          -4886.33699        -102179.40295        -102179.40295
      6600            3300.00000           3000.65694         -88366.33791              3.22122           4570.58245        -101666.21523         -97095.63278          -5083.26294        -102178.89572        -102178.89572
      6700            3350.00000           3093.49239         -72610.26429              3.22122           4711.98885        -101429.08696         -96717.09811          -5461.31584        -102178.41395        -102178.41395
      6800            3400.00000           3243.40067         -81272.26423              3.22122           4940.32823        -101682.55445         -96742.22622          -5436.86531        -102179.09153        -102179.09153
      6900            3450.00000           2954.74494         -87347.41544              3.22122           4500.64958        -101547.86468         -97047.21511          -5131.54967        -102178.76477        -102178.76477
      7000            3500.00000           2967.65675         -91186.92464              3.22122           4520.31677        -101674.63594         -97154.31917          -5024.90719        -102179.22636        -102179.22636
      7100            3550.00000           2979.10935         -91177.11577              3.22122           4537.76130        -101744.31958         -97206.55828          -4972.67308        -102179.23136        -102179.23136
      7200            3600.00000           3078.35988         -92162.20063              3.22122           4688.93911        -101935.17314         -97246.23403          -4933.21504        -102179.44907        -102179.44907
      7300            3650.00000           2813.37823         -88075.69014              3.22122           4285.32065        -101558.20703         -97272.88637          -4906.00868        -102178.89505        -102178.89505
      7400            3700.00000           3136.23619         -90102.09754              3.22122           4777.09595        -101973.64365         -97196.54769          -4983.07511        -102179.62280        -102179.62280
      7500            3750.00000           3092.71301         -81233.73291              3.22122           4710.80169        -101703.47861         -96992.67692          -5186.41242        -102179.08934        -102179.08934
      7600            3800.00000           3034.84518         -83603.50488              3.22122           4622.65777        -101460.69969         -96838.04192          -5340.50829        -102178.55022        -102178.55022
      7700            3850.00000           3059.70775         -89882.64881              3.22122           4660.52829        -101664.32431         -97003.79602          -5175.23902        -102179.03504        -102179.03504
      7800            3900.00000           3073.07786        -100153.59163              3.22122           4680.89356        -102089.82559         -97408.93203          -4770.76906        -102179.70109        -102179.70109
      7900            3950.00000           2987.25955         -99884.44894              3.22122           4550.17563        -101990.29519         -97440.11956          -4739.42277        -102179.54233        -102179.54233
      8000            4000.00000           3030.33146         -94493.12118              3.22122           4615.78250        -101860.98950         -97245.20700          -4933.99266        -102179.19965        -102179.19965
      8100            4050.00000           3028.12080         -87784.73957              3.22122           4612.41524        -101624.07844         -97011.66320          -5166.92441        -102178.58761        -102178.58761
      8200            4100.00000           3142.63462         -88652.83503              3.22122           4786.84200        -101733.01192         -96946.16991          -5233.11048        -102179.28039        -102179.28039
      8300            4150.00000           2810.31641         -82692.50135              3.22122           4280.65691        -101438.41961         -97157.76270          -5020.87492        -102178.63762        -102178.63762
      8400            4200.00000           2866.12179        -109186.02688              3.22122           4365.65932        -102073.32321         -97707.66389          -4471.82485        -102179.48874        -102179.48874
      8500            4250.00000           2757.67719         -91981.74640              3.22122           4200.47717        -101758.70753         -97558.23035          -4620.66318        -102178.89353        -102178.89353
      8600            4300.00000           2915.81503         -88318.51470              3.22122           4441.35176        -101627.98253         -97186.63076          -4992.15283        -102178.78359        -102178.78359
      8700            4350.00000           2914.82780         -85768.28010              3.22122           4439.84803        -101422.73760         -96982.88956          -5195.73496        -102178.62452        -102178.62452
      8800            4400.00000           2976.54739         -79972.27393              3.22122           4533.85894        -101500.82420         -96966.96527          -5211.67123        -102178.63650        -102178.63650
      8900            4450.00000           3155.92750         -95637.42089              3.22122           4807.08962        -102045.64753         -97238.55791          -4940.98816        -102179.54606        -102179.54606
      9000            4500.00000           2836.57707         -93274.94129              3.22122           4320.65698        -101864.24999         -97543.59300          -4635.89673        -102179.48973        -102179.48973
      9100            4550.00000           2898.16012         -93723.20112              3.22122           4414.45992        -101891.37474         -97476.91482          -4702.42074        -102179.33556        -102179.33556
      9200            4600.00000           3054.50980         -94502.72153              3.22122           4652.61080        -101946.96021         -97294.34941          -4885.11469        -102179.46410        -102179.46410
      9300            4650.00000           3011.62317         -91209.02091              3.22122           4587.28615        -101774.29850         -97187.01235          -4992.13010        -102179.14245        -102179.14245
      9400            4700.00000           3088.87326         -89700.90318              3.22122           4704.95302        -101827.24806         -97122.29504          -5056.69886        -102178.99390        -102178.99390
      9500            4750.00000           3009.60333         -90727.76201              3.22122           4584.20955        -101673.64491         -97089.43536          -5089.39462        -102178.82998        -102178.82998
      9600            4800.00000           3089.61211         -87343.72093              3.22122           4706.07842        -101760.70945         -97054.63103          -5124.31306        -102178.94409        -102178.94409
      9700            4850.00000           2890.40367         -79588.80308              3.22122           4402.64534        -101534.65985         -97132.01452          -5047.02753        -102179.04204        -102179.04204
      9800            4900.00000           2963.65254         -93901.20621              3.22122           4514.21757        -101797.89042         -97283.67284          -4895.58271        -102179.25555        -102179.25555
      9900            4950.00000           2886.53246         -86025.73589              3.22122           4396.74874        -101815.72127         -97418.97253          -4760.19172        -102179.16425        -102179.16425
     10000            5000.00000           2906.53306         -96313.93521              3.22122           4427.21352        -101792.39072         -97365.17720          -4814.21922        -102179.39642        -102179.39642
Loop time of 8529.58 on 1 procs for 10000 steps with 512 atoms

Performance: 0.051 ns/day, 473.865 hours/ns, 1.172 timesteps/s, 600.264 atom-step/s
99.6% CPU use with 1 MPI tasks x no OpenMP threads

MPI task timing breakdown:
Section |  min time  |  avg time  |  max time  |%varavg| %total
---------------------------------------------------------------
Pair    | 8522.2     | 8522.2     | 8522.2     |   0.0 | 99.91
Neigh   | 6.5144     | 6.5144     | 6.5144     |   0.0 |  0.08
Comm    | 0.18271    | 0.18271    | 0.18271    |   0.0 |  0.00
Output  | 0.54274    | 0.54274    | 0.54274    |   0.0 |  0.01
Modify  | 0.10134    | 0.10134    | 0.10134    |   0.0 |  0.00
Other   |            | 0.04574    |            |       |  0.00

Nlocal:            512 ave         512 max         512 min
Histogram: 1 0 0 0 0 0 0 0 0 0
Nghost:           2547 ave        2547 max        2547 min
Histogram: 1 0 0 0 0 0 0 0 0 0
Neighs:              0 ave           0 max           0 min
Histogram: 1 0 0 0 0 0 0 0 0 0
FullNghs:        76166 ave       76166 max       76166 min
Histogram: 1 0 0 0 0 0 0 0 0 0

Total # of neighbors = 76166
Ave neighs/atom = 148.76172
Neighbor list builds = 542
Dangerous builds = 0
Total wall time: 2:22:11
