

512 atoms
2 atom types

0 16.5 xlo xhi
0 16.5 ylo yhi
0 16.5 zlo zhi
0.0 0.0 0.0 xy xz yz

Masses

1 1.00784
2 14.0067

Atoms # atomic

1	1	8.39052	3.36462	14.28406
2	1	13.70768	9.46225	4.37169
3	1	2.89886	6.52303	11.23734
4	1	0.89108	15.56617	9.83529
5	1	14.46059	9.82248	5.68186
6	1	13.60669	15.60031	14.22046
7	1	16.25654	13.9502	5.74116
8	1	10.05743	12.17754	11.07889
9	1	11.13659	11.53131	15.78963
10	1	2.49878	0.09094	11.21953
11	1	9.32231	1.73089	2.56565
12	1	5.8465	12.67043	4.81777
13	1	16.40127	15.71278	13.0993
14	1	16.29154	6.99808	14.46059
15	1	2.38442	12.42489	12.66146
16	1	1.3452	7.44228	8.73221
17	1	1.59766	3.72829	6.16807
18	1	1.01954	14.124	9.03162
19	1	8.03782	8.46061	14.46086
20	1	4.35078	3.85727	3.19838
21	1	1.42557	12.51113	9.46911
22	1	13.88729	7.67122	2.54583
23	1	5.94197	15.872	15.71175
24	1	15.91121	2.46852	15.95603
25	1	0.76326	9.52484	2.72585
26	1	7.12025	11.60167	5.10612
27	1	0.73836	14.60399	13.11978
28	1	7.7937	7.96487	6.33189
29	1	5.52571	4.02804	13.64314
30	1	16.16138	14.68242	10.75204
31	1	0.05049	1.50626	2.067
32	1	5.6002	13.79534	9.32834
33	1	14.16929	4.81321	4.07355
34	1	10.88638	7.91471	15.49505
35	1	12.35181	6.92327	3.24911
36	1	2.76866	13.91873	11.84035
37	1	7.05113	3.2591	13.37169
38	1	1.10421	14.89673	3.86609
39	1	0.1367	8.3478	14.881
40	1	8.14878	10.03516	13.66217
41	1	2.33224	13.27227	9.48984
42	1	7.1819	15.34476	9.85141
43	1	10.49773	12.71731	14.7632
44	1	13.82998	7.89798	0.69573
45	1	4.44825	1.38172	3.07601
46	1	13.28165	4.2786	11.71434
47	1	8.91235	2.90497	2.63877
48	1	1.26072	1.636	2.94598
49	1	14.30141	10.9858	2.10232
50	1	1.37403	13.50337	6.80669
51	1	11.37326	1.41944	14.55141
52	1	1.81851	1.6129	1.36068
53	1	11.94104	9.56598	10.27942
54	1	2.46034	3.12043	3.80191
55	1	5.48533	10.67051	2.20196
56	1	7.31495	2.59277	12.47734
57	1	2.21623	7.41174	10.48339
58	1	8.8554	6.47159	6.29558
59	1	6.25785	4.50573	15.51724
60	1	6.3661	6.37496	15.33128
61	1	1.54387	13.58329	4.92061
62	1	0.57192	8.57592	7.72202
63	1	1.95401	13.55165	13.41232
64	1	13.3043	1.83875	14.56919
65	1	14.91032	14.28121	4.60683
66	1	9.07129	16.19634	4.58181
67	1	0.48389	8.87123	1.27906
68	1	13.59501	10.04065	10.93016
69	1	13.61002	5.85946	12.53342
70	1	5.52752	11.68404	6.30301
71	1	1.31768	2.40262	4.69973
72	1	10.18683	6.92472	7.64379
73	1	12.806	16.0547	2.63492
74	1	2.65223	1.14448	12.69829
75	1	12.19787	1.62254	13.50534
76	1	14.26912	13.83397	2.10405
77	1	13.80747	6.37439	3.82382
78	1	7.1626	6.34428	5.84873
79	1	13.31444	9.23666	2.11669
80	1	10.57828	2.50104	3.59048
81	1	5.97525	5.88156	0.91211
82	1	2.99471	2.56746	5.30158
83	1	3.6636	0.07759	3.43999
84	1	1.13889	7.20809	15.05433
85	1	1.23218	14.12802	11.01764
86	1	8.68251	16.46191	16.42981
87	1	6.55874	15.50124	14.34601
88	1	2.48728	2.83073	14.90807
89	1	16.23753	8.26664	9.03262
90	1	16.27259	9.50628	9.41529
91	1	15.59312	14.114	13.32182
92	1	12.28761	5.81186	12.4358
93	1	2.46307	3.60119	0.06374
94	1	2.86496	6.05993	9.65897
95	1	9.33645	7.54159	15.32602
96	1	5.78821	15.93372	9.05078
97	1	8.85721	1.93882	3.96158
98	1	6.13577	4.23301	1.2247
99	1	0.88902	16.01407	1.62031
100	1	2.32348	1.77304	11.35426
101	1	1.7531	6.5064	2.89008
102	1	6.46822	1.04745	14.23254
103	1	0.6495	13.46348	3.46675
104	1	13.44054	7.45657	4.23143
105	1	14.50527	14.71373	5.88864
106	1	6.56403	6.04564	13.67815
107	1	4.72564	4.94063	1.30213
108	1	1.33535	1.98488	6.35584
109	1	5.52188	11.64596	0.48007
110	1	13.19091	6.32589	10.61336
111	1	15.59193	5.45804	13.72302
112	1	14.04678	16.09841	3.44478
113	1	9.82648	11.17136	15.29899
114	1	12.37295	12.59722	10.79925
115	1	6.31784	12.97439	6.09627
116	1	4.16143	10.99997	8.23409
117	1	2.83925	1.59473	3.32196
118	1	5.11799	9.16769	1.84519
119	1	15.27158	8.67183	10.5756
120	1	2.09143	10.44506	0.25756
121	1	3.20184	5.53134	2.39356
122	1	14.9928	9.11052	8.6642
123	1	13.37183	6.08881	5.82874
124	1	10.15051	12.55368	16.25249
125	1	3.20775	4.83097	3.91787
126	1	13.1541	8.47078	7.93199
127	1	7.0255	14.95067	8.26684
128	1	4.35682	10.1043	10.04111
129	2	16.35914	14.90837	12.86109
130	2	13.93824	13.97576	11.36792
131	2	15.20229	5.08544	11.21393
132	2	7.45164	10.14767	9.10516
133	2	0.13619	9.90047	11.87198
134	2	0.18598	15.29874	1.59108
135	2	12.46327	11.85896	4.29829
136	2	6.74162	8.02834	0.85389
137	2	15.22587	14.00492	5.59677
138	2	15.72251	14.41291	8.04347
139	2	14.307	2.90116	12.26192
140	2	8.32482	8.0698	3.90147
141	2	13.93819	9.0412	5.16901
142	2	7.72224	8.03604	11.90272
143	2	3.68373	13.44937	4.50322
144	2	4.21828	4.06102	11.19314
145	2	3.56514	4.42062	14.63326
146	2	7.02721	10.87301	16.43942
147	2	13.82206	11.87965	1.82843
148	2	7.33927	0.83879	14.68365
149	2	10.67759	3.90502	5.97571
150	2	11.70695	15.99567	12.39922
151	2	3.0891	9.95247	14.65882
152	2	6.35414	14.89764	9.15497
153	2	13.81944	15.92695	8.90221
154	2	11.21271	13.29468	7.25591
155	2	16.4082	4.98968	5.8995
156	2	15.45195	11.65609	10.25841
157	2	5.56119	12.75304	3.27164
158	2	1.64604	13.21801	8.87807
159	2	5.61607	4.76538	0.68191
160	2	12.65083	6.88869	14.4257
161	2	7.48374	1.85473	16.47351
162	2	9.24424	2.27395	3.23673
163	2	14.23531	8.84885	1.62368
164	2	9.56163	0.03352	10.63569
165	2	14.51911	13.29017	14.25895
166	2	14.57319	13.96494	16.35084
167	2	1.93838	4.80027	1.38794
168	2	2.51567	7.22267	0.57212
169	2	1.14987	10.00978	0.16111
170	2	5.67803	0.10577	1.78703
171	2	7.56878	10.71914	11.9993
172	2	16.16148	4.18381	2.72271
173	2	5.263	5.11033	3.74152
174	2	9.27624	8.45699	10.07573
175	2	11.62683	12.51773	11.48554
176	2	1.0662	2.02906	2.0092
177	2	6.9738	12.97505	11.47732
178	2	0.74497	0.6133	15.85404
179	2	13.30291	7.15383	3.37697
180	2	9.47457	11.66832	4.46918
181	2	8.33871	16.03042	0.89866
182	2	7.36668	1.76685	11.84717
183	2	2.36057	8.2033	3.68007
184	2	8.84388	0.28931	13.44027
185	2	1.88751	2.65658	5.47713
186	2	1.65165	5.97876	6.35739
187	2	1.67446	10.01263	9.33825
188	2	8.82078	14.40255	15.51979
189	2	6.32223	4.50384	11.4261
190	2	2.94997	15.84731	14.60003
191	2	13.57542	1.85233	8.38891
192	2	8.17115	10.83625	6.4176
193	2	5.60587	13.41301	7.47317
194	2	3.61418	1.03027	3.59828
195	2	10.77813	7.37936	6.87514
196	2	9.29104	3.43791	13.8867
197	2	8.35808	9.35765	14.48365
198	2	10.53093	2.41549	16.19769
199	2	5.54391	5.2739	6.34147
200	2	6.26654	4.08044	10.33133
201	2	3.82902	12.50221	15.8225
202	2	6.43534	3.99824	13.6112
203	2	13.04504	4.80949	7.27877
204	2	15.03988	11.77162	12.49762
205	2	10.99707	15.03803	0.38595
206	2	14.85557	10.15355	15.13711
207	2	8.16565	15.46338	7.66231
208	2	11.42126	3.07114	12.33588
209	2	2.84044	7.14931	16.0717
210	2	13.66497	15.22444	8.03479
211	2	12.218	2.76436	11.69449
212	2	4.64579	8.0959	2.9662
213	2	0.51413	1.80806	7.75901
214	2	14.97887	4.61819	13.72133
215	2	13.00693	15.32282	5.43189
216	2	0.84271	2.90577	13.33814
217	2	0.57167	6.87932	11.25504
218	2	8.24743	13.36404	5.87497
219	2	4.96352	12.28244	10.96204
220	2	9.68666	1.85549	6.24884
221	2	5.14136	7.47344	15.52234
222	2	5.35424	1.21295	10.17764
223	2	8.59405	0.45977	1.50245
224	2	11.2518	6.18017	2.71579
225	2	5.15664	2.3444	5.79678
226	2	0.45568	5.26589	15.10207
227	2	10.06376	15.80042	4.49886
228	2	15.50273	2.38149	6.40152
229	2	2.30576	5.75205	2.5764
230	2	0.61291	14.90799	10.61957
231	2	14.02327	3.18496	2.88563
232	2	12.52949	1.22128	14.27718
233	2	6.98987	15.87113	15.26207
234	2	0.90459	4.58604	8.05495
235	2	7.19466	15.9108	12.02681
236	2	0.31786	7.22429	3.69925
237	2	10.26558	11.93268	15.5184
238	2	4.15939	5.31544	14.40273
239	2	6.87886	8.02132	12.61523
240	2	5.93965	9.68837	4.73706
241	2	8.35666	5.72209	3.46962
242	2	2.42712	3.36364	10.29344
243	2	13.27948	2.94229	6.24547
244	2	15.81061	16.1737	15.38413
245	2	1.8554	9.17203	3.82996
246	2	15.43401	4.27664	10.48832
247	2	2.51177	6.55231	10.31957
248	2	10.07605	9.55399	12.55996
249	2	11.30247	9.49722	1.90924
250	2	10.60795	11.25252	8.59798
251	2	13.20684	7.18353	8.62995
252	2	4.36986	7.14176	2.25128
253	2	10.26038	11.93556	3.65391
254	2	11.93349	4.84927	16.41706
255	2	5.87213	11.63127	3.03625
256	2	10.51628	9.98453	11.52472
257	2	1.41027	11.13849	13.79336
258	2	13.88417	14.49994	10.39171
259	2	15.95854	0.75275	10.38378
260	2	6.42923	9.98105	9.605
261	2	0.27579	12.21725	7.14902
262	2	15.54994	15.38523	2.20678
263	2	13.28174	12.75218	8.70345
264	2	7.74519	12.67601	13.67375
265	2	3.04765	13.12252	1.47264
266	2	0.18802	14.9925	7.7434
267	2	12.18277	1.15026	10.69856
268	2	9.33733	7.92943	4.34013
269	2	7.78859	12.24632	8.22871
270	2	2.84556	9.74226	11.3641
271	2	3.58962	12.78388	5.35787
272	2	3.90412	3.98678	12.25437
273	2	15.9858	0.86109	3.82235
274	2	5.28235	13.79812	0.32185
275	2	12.65778	11.646	1.45601
276	2	4.29798	5.27484	8.73702
277	2	6.15268	2.26472	3.06791
278	2	12.61835	15.60775	12.92131
279	2	3.21966	9.43393	15.61242
280	2	8.87919	12.46212	1.89077
281	2	11.05158	14.81861	9.23331
282	2	10.71397	12.38991	6.86333
283	2	15.3887	4.72253	5.45799
284	2	16.38701	11.86677	9.72292
285	2	11.40365	14.77202	2.63405
286	2	2.95977	1.60043	7.79448
287	2	2.27645	16.1108	0.42794
288	2	13.08463	7.02361	15.45107
289	2	4.84476	1.40255	13.16354
290	2	8.70964	4.01924	1.34068
291	2	15.25946	9.28952	2.24466
292	2	8.85772	0.41402	9.83411
293	2	12.55537	10.19149	15.92633
294	2	13.64102	14.32048	0.27465
295	2	3.1154	4.23965	0.95063
296	2	10.27123	7.51382	12.49593
297	2	0.28142	10.8541	16.48948
298	2	5.15374	15.55195	1.82401
299	2	8.49356	10.97637	11.25695
300	2	0.16961	3.42859	3.48137
301	2	14.71548	4.72161	0.50835
302	2	9.41094	8.70939	8.98324
303	2	11.98009	12.02067	12.59211
304	2	10.28331	5.52092	10.14792
305	2	7.9293	13.3594	11.19068
306	2	1.32933	1.48692	15.40137
307	2	14.71255	11.18686	4.34604
308	2	11.51006	9.01171	4.12738
309	2	6.94119	14.88675	2.91794
310	2	8.41915	2.22701	11.1629
311	2	3.52561	10.71959	6.50372
312	2	9.88344	0.51541	13.45647
313	2	1.33849	13.45327	16.29875
314	2	2.10783	5.70537	5.27624
315	2	2.56538	10.36932	8.79981
316	2	9.45404	15.39342	15.33748
317	2	6.45986	6.71485	9.30634
318	2	3.76899	15.28056	14.05014
319	2	3.83932	7.03471	7.48953
320	2	5.13839	9.97302	13.20904
321	2	4.81137	13.76075	8.14728
322	2	11.23573	1.37256	1.50259
323	2	11.50789	6.39037	6.41583
324	2	9.3599	4.5887	14.31371
325	2	9.47842	9.39797	14.95315
326	2	12.478	8.54718	12.24939
327	2	4.99475	4.36304	6.35725
328	2	5.08074	6.88942	11.21288
329	2	1.92898	5.31168	12.63203
330	2	6.9195	4.63681	14.91012
331	2	7.84661	4.35706	5.55451
332	2	14.14815	11.05245	12.25705
333	2	11.78351	15.69716	16.15779
334	2	15.01435	9.14239	15.55507
335	2	9.10654	16.0246	8.15575
336	2	6.69591	2.82915	8.1613
337	2	14.63255	8.38877	12.32852
338	2	11.76066	0.5534	7.46852
339	2	9.20157	4.87715	12.18171
340	2	4.60588	9.9319	1.66357
341	2	16.22058	1.53292	8.55075
342	2	0.16632	3.14721	16.164
343	2	13.36732	15.16108	4.30396
344	2	0.25242	2.23857	12.62542
345	2	16.25795	6.83657	10.49675
346	2	5.1295	15.46666	4.71686
347	2	5.07298	12.64542	9.88124
348	2	8.76549	1.33418	5.52494
349	2	5.41834	8.52132	15.2342
350	2	4.30797	0.84434	10.43474
351	2	12.19319	4.04666	2.72099
352	2	10.20706	6.47987	2.1807
353	2	4.92024	1.31705	5.38229
354	2	16.30001	7.29115	0.61846
355	2	10.70866	0.4438	4.47854
356	2	15.3454	1.23118	6.15308
357	2	4.3335	2.75361	16.49622
358	2	3.36039	15.50485	11.52131
359	2	14.07597	2.5816	3.81295
360	2	15.04017	0.94894	1.44007
361	2	10.1341	14.20743	12.27218
362	2	16.35863	4.95146	8.22647
363	2	5.91005	0.5041	7.19031
364	2	15.89429	7.18283	2.95795
365	2	6.0598	11.48667	15.98392
366	2	12.56211	3.0424	0.01443
367	2	2.62172	7.54588	12.91415
368	2	7.39921	9.27522	2.72508
369	2	9.04673	4.96453	3.97576
370	2	2.48558	15.15897	5.87367
371	2	13.01762	1.93514	5.67146
372	2	15.27849	0.21438	14.59956
373	2	0.41829	8.7242	5.88553
374	2	12.64956	4.15371	14.15869
375	2	5.12056	9.07144	7.96544
376	2	11.52881	13.71927	14.87334
377	2	10.25946	9.79687	2.36057
378	2	10.93884	10.2613	8.93197
379	2	13.73004	7.16986	9.70545
380	2	3.49186	11.25498	3.73307
381	2	1.1605	11.00375	3.7607
382	2	14.5657	1.85162	12.60675
383	2	16.24138	11.8315	2.22041
384	2	10.13035	3.37808	8.73163
385	2	0.70865	11.93315	13.99538
386	2	12.75184	8.70613	6.1988
387	2	14.91948	0.8743	10.67745
388	2	5.46222	9.74071	10.43204
389	2	0.85081	12.85913	6.47367
390	2	14.48307	14.82816	2.35201
391	2	13.32854	11.70211	8.40694
392	2	8.11511	11.7376	14.21179
393	2	3.49752	13.95799	2.06396
394	2	1.06634	15.74744	7.50616
395	2	11.79069	0.63031	9.81091
396	2	7.82221	6.93269	6.59707
397	2	8.36636	12.96229	8.89469
398	2	3.14937	10.95993	11.35674
399	2	2.53053	13.38682	12.71647
400	2	0.41393	7.7387	8.27919
401	2	0.19853	0.48411	4.57473
402	2	6.16166	13.94549	16.09001
403	2	11.64308	11.48955	1.0718
404	2	3.73249	4.48329	8.19336
405	2	6.51573	2.87059	3.97888
406	2	13.7849	15.40439	13.02011
407	2	0.74737	9.25386	12.52678
408	2	8.29138	12.3309	0.93648
409	2	10.79361	13.81073	9.5488
410	2	8.30697	13.90763	5.00871
411	2	14.23735	5.22583	5.08139
412	2	16.12146	11.51111	7.8611
413	2	11.82389	13.74472	2.57015
414	2	4.03882	1.96254	7.79371
415	2	3.39405	16.45887	0.34435
416	2	14.03236	7.22825	16.27723
417	2	4.96469	0.93463	14.20025
418	2	8.99627	3.87255	0.26969
419	2	16.46981	9.18573	2.06103
420	2	1.41012	13.84575	3.91065
421	2	12.09354	9.43796	15.09906
422	2	2.22406	0.86947	11.90452
423	2	0.63668	7.76997	14.33268
424	2	9.64849	7.09581	13.46495
425	2	15.7466	11.34192	16.42636
426	2	3.3079	3.79806	3.75559
427	2	9.10748	11.82459	10.74287
428	2	2.91907	12.12083	15.25973
429	2	14.14812	4.94367	1.46328
430	2	6.36238	12.1773	5.63948
431	2	11.95456	11.54613	13.62873
432	2	10.95784	6.00827	9.40793
433	2	8.67927	10.25159	7.24281
434	2	2.43713	1.9143	15.14175
435	2	15.10083	12.17137	4.46085
436	2	11.04993	9.38384	5.16456
437	2	7.99497	15.20027	3.12533
438	2	9.16381	2.90642	10.65241
439	2	3.451	9.7697	5.78568
440	2	10.54782	2.4375	15.18432
441	2	0.78034	14.08708	15.52535
442	2	3.7448	7.75803	5.47743
443	2	3.66931	11.06515	9.19481
444	2	7.94742	10.22584	0.1498
445	2	7.51999	6.45929	9.53671
446	2	5.15959	13.27102	13.88218
447	2	2.95748	7.45507	7.97157
448	2	5.19698	10.80574	14.022
449	2	4.75741	7.44763	5.4358
450	2	12.37558	1.44956	1.44347
451	2	12.38665	6.82666	5.45028
452	2	9.75149	5.54041	14.95695
453	2	9.87107	8.47968	15.72995
454	2	12.04736	7.853	11.42068
455	2	15.03441	7.37287	6.20872
456	2	4.68311	7.62355	10.46184
457	2	0.81462	5.54977	12.60197
458	2	7.07244	6.11584	14.64836
459	2	8.33107	3.72937	6.32846
460	2	13.13426	10.61669	11.45933
461	2	12.81092	16.00821	15.75054
462	2	5.15379	13.85267	12.94671
463	2	13.4039	9.10444	7.19174
464	2	7.64637	3.24357	8.51105
465	2	14.52109	7.45163	12.93144
466	2	11.29502	16.24972	6.86268
467	2	8.44438	5.66181	11.98654
468	2	3.47266	10.09698	1.127
469	2	3.20243	16.00096	9.06846
470	2	0.25637	4.28253	15.50295
471	2	3.58744	15.84005	8.02373
472	2	13.0465	5.325	11.90102
473	2	15.43243	9.17142	9.71236
474	2	5.22016	14.81491	5.57325
475	2	6.45996	15.78004	12.80145
476	2	7.96532	0.41056	5.47529
477	2	6.54536	2.36693	0.25864
478	2	11.01366	3.98494	4.92977
479	2	11.29718	3.78366	2.0272
480	2	9.58647	7.30783	1.76259
481	2	13.79828	5.00077	8.10083
482	2	16.39714	6.33291	1.24292
483	2	11.46625	1.28149	4.34778
484	2	15.01627	0.09184	6.53639
485	2	4.0335	2.39755	1.17264
486	2	4.50222	15.49858	11.54171
487	2	13.18507	0.19486	3.28851
488	2	14.14888	0.61899	0.88952
489	2	9.21586	14.65605	12.46871
490	2	1.51286	3.80474	9.91366
491	2	6.37612	0.23048	8.20002
492	2	14.88657	7.56635	7.32688
493	2	6.8812	9.22066	5.02018
494	2	13.78956	3.02176	0.15445
495	2	3.60382	7.88653	13.52967
496	2	8.21477	10.06852	2.61442
497	2	6.84764	7.01391	1.39319
498	2	2.39261	16.19771	5.51812
499	2	13.07735	2.62873	9.10281
500	2	14.34682	12.38354	14.95224
501	2	16.39885	9.75905	5.75232
502	2	13.81847	4.65639	14.12459
503	2	6.01298	8.77748	7.40297
504	2	12.39214	14.09335	14.43922
505	2	12.01628	11.64039	5.36798
506	2	11.73023	9.00014	9.21558
507	2	6.22617	5.83417	3.64976
508	2	3.08439	11.34503	2.78735
509	2	1.0991	11.51203	4.77024
510	2	11.63271	5.93239	0.0946
511	2	16.1672	12.92011	1.98486
512	2	11.01235	3.27398	8.07963