LAMMPS (29 Oct 2020)
#######################################################################
# MD assembly simulation of OS-CG particles with alpha=4 using ChIMES model at 300 K.
#######################################################################

######################################################################
# run 100_000 steps
#####################################################################
clear
variable dt         equal 5.0
variable Tstart     equal 300.0
variable Tstop      equal 300.0
variable Tdamp      equal 500.0
variable atmmass    equal 67256
variable uc         equal 120
variable nrepl      equal 4
variable timesteps  equal 100000
variable iofrq      equal 1000

####################################################################
# Specify high-level paramters
####################################################################
units		        real
atom_style	        molecular
atom_modify         sort 0 0.0                           # print out in frames in order
neighbor    	    2.0 bin                              # consider cutoff +2 as neighbor
neigh_modify	    every 1 delay 0 check yes            # every x step//no delay//check the neighbor list to see if need to update

######################################################
# Set up simulation box with particle initialized at FCC lattice
######################################################
lattice             fcc ${uc}
lattice             fcc 120
Lattice spacing in x,y,z = 120.00000 120.00000 120.00000
region              box block 0 1 0 1 0 1 units lattice
create_box          1 box                                # use that empty cell to define simulation cell
Created orthogonal box = (0.0000000 0.0000000 0.0000000) to (120.00000 120.00000 120.00000)
  1 by 1 by 1 MPI processor grid
create_atoms        1 box                                # place atoms on lattice points
Created 4 atoms
  create_atoms CPU = 0.002 seconds
replicate           ${nrepl} ${nrepl} ${nrepl}
replicate           4 ${nrepl} ${nrepl}
replicate           4 4 ${nrepl}
replicate           4 4 4
Replicating atoms ...
  orthogonal box = (0.0000000 0.0000000 0.0000000) to (480.00000 480.00000 480.00000)
  1 by 1 by 1 MPI processor grid
  256 atoms
Finding 1-2 1-3 1-4 neighbors ...
  special bond factors lj:    0.0      0.0      0.0     
  special bond factors coul:  0.0      0.0      0.0     
     0 = max # of 1-2 neighbors
     0 = max # of 1-3 neighbors
     0 = max # of 1-4 neighbors
     1 = max # of special neighbors
  special bonds CPU = 0.000 seconds
  replicate CPU = 0.002 seconds

mass                1 ${atmmass}
mass                1 67256
velocity            all create ${Tstart} 4834834 rot yes mom yes dist gaussian
velocity            all create 300 4834834 rot yes mom yes dist gaussian

######################################################
# Define the interaction model
######################################################
pair_style          chimesFF
pair_coeff          * * A4_params.txt

timestep            ${dt}
timestep            5

################################################################################################################
# Specify thermodynamic constraints & output and run simulation
################################################################################################################
fix                 1 all nvt temp ${Tstart} ${Tstop} ${Tdamp}
fix                 1 all nvt temp 300 ${Tstop} ${Tdamp}
fix                 1 all nvt temp 300 300 ${Tdamp}
fix                 1 all nvt temp 300 300 500
#fix                 1 all temp/csvr ${Tstart} ${Tstop} ${Tdamp} 4834834

restart             10 nvt.a.restart nvt.b.restart

thermo_style        custom step time ke pe temp press etotal f_1 lx ly lz
thermo              ${iofrq}
thermo              1000
thermo_modify       norm yes

dump                1 all custom ${iofrq} chimes_A4.lammpstrj id type element xu yu zu fx fy fz
dump                1 all custom 1000 chimes_A4.lammpstrj id type element xu yu zu fx fy fz
dump_modify         1 element A sort id    #give element names

run	                ${timesteps}
run	                100000
Neighbor list info ...
  update every 1 steps, delay 0 steps, check yes
  max neighbors/atom: 2000, page size: 100000
  master list distance cutoff = 122
  ghost atom cutoff = 122
  binsize = 61, bins = 8 8 8
  1 neighbor lists, perpetual/occasional/extra = 1 0 0
  (1) pair chimesFF, perpetual
      attributes: full, newton on, ghost
      pair build: full/bin/ghost
      stencil: full/ghost/bin/3d
      bin: standard
Per MPI rank memory allocation (min/avg/max) = 7.079 | 7.079 | 7.079 Mbytes
Step Time KinEng PotEng Temp Press TotEng f_1 Lx Ly Lz 
       0            0   0.89074988   -14.658963          300    32.985657   -13.768213            0          480          480          480 
    1000         5000   0.79135057   -14.560165    266.52282    31.598001   -13.768815 0.00060207382          480          480          480 
    2000        10000    0.9007823   -14.272107    303.37887    30.085881   -13.371325  -0.39688733          480          480          480 
    3000        15000    0.8969035     -13.9576    302.07251    28.309828   -13.060697  -0.70751553          480          480          480 
    4000        20000   0.87134729    -13.95882    293.46531    26.261866   -13.087472  -0.68074011          480          480          480 
    5000        25000   0.97567402   -14.793348    328.60202    23.959163   -13.817674  0.049461548          480          480          480 
    6000        30000   0.97014547   -16.554331    326.74003    21.745829   -15.584185    1.8159685          480          480          480 
    7000        35000    1.1291244   -18.804126    380.28331    19.162626   -17.675002     3.906779          480          480          480 
    8000        40000    1.1152446   -22.784083    375.60869    15.542077   -21.668838    7.9005456          480          480          480 
    9000        45000    1.1912964   -27.728769    401.22252    12.402766   -26.537473    12.768991          480          480          480 
   10000        50000    1.2466246   -34.046789    419.85677    9.2647479   -32.800164    19.031141          480          480          480 
   11000        55000    1.2750825   -41.477168    429.44127    6.4782838   -40.202085    26.431884          480          480          480 
   12000        60000    1.2778837   -49.493233    430.38468    4.4032678   -48.215349    34.443256          480          480          480 
   13000        65000    1.2724856   -57.949588    428.56663    2.7586717   -56.677103    42.902369          480          480          480 
   14000        70000    1.2181616   -66.147781     410.2706    2.1462912   -64.929619    51.151971          480          480          480 
   15000        75000    1.1895157   -73.856705    400.62282    1.5057363    -72.66719    58.886837          480          480          480 
   16000        80000    1.1881915   -81.369919    400.17683   0.08434571   -80.181728    66.398785          480          480          480 
   17000        85000    1.2315015   -89.327256     414.7634   -1.8667249   -88.095755    74.309837          480          480          480 
   18000        90000    1.2250053   -97.711839    412.57552   -3.2601115   -96.486834    82.697328          480          480          480 
   19000        95000    1.1702051   -105.58548     394.1191   -3.8452056   -104.41527    90.622446          480          480          480 
   20000       100000    1.1601735   -112.88759     390.7405   -4.6961076   -111.72742    97.931861          480          480          480 
   21000       105000     1.212575   -120.61034    408.38904   -6.3185296   -119.39776     105.5992          480          480          480 
   22000       110000    1.2381315   -129.06712    416.99634   -7.7463886   -127.82899    114.02659          480          480          480 
   23000       115000    1.1830173   -137.32007    398.43417   -7.9725578   -136.13705    122.33075          480          480          480 
   24000       120000    1.1270049   -144.53955    379.56948   -7.7583057   -143.41255    129.60335          480          480          480 
   25000       125000     1.146967    -151.4875     386.2926   -8.9860837   -150.34053     136.5289          480          480          480 
   26000       130000    1.2064688   -159.08349    406.33251   -11.203314   -157.87702     144.0625          480          480          480 
   27000       135000    1.2643299   -167.65725    425.81983   -13.241587   -166.39292    152.57448          480          480          480 
   28000       140000    1.2881281   -176.98437    433.83497   -14.572147   -175.69624     161.8727          480          480          480 
   29000       145000    1.2682584   -186.45006    427.14293   -14.910968    -185.1818    171.35248          480          480          480 
   30000       150000     1.247511   -195.64113    420.15531   -14.748952   -194.39362    180.55854          480          480          480 
   31000       155000     1.235954   -204.70357    416.26299    -14.81888   -203.46761    189.62676          480          480          480 
   32000       160000       1.2018    -213.4384    404.76008   -14.585199    -212.2366    198.39024          480          480          480 
   33000       165000    1.1568539   -221.50073    389.62249   -14.002818   -220.34387    206.49292          480          480          480 
   34000       170000    1.1295753   -228.89945    380.43518   -13.504787   -227.76987     213.9153          480          480          480 
   35000       175000    1.1329661   -236.05996     381.5772   -13.578748     -234.927    221.06928          480          480          480 
   36000       180000    1.1550634   -243.38901    389.01943   -14.125177   -242.23395    228.37307          480          480          480 
   37000       185000    1.1637329   -250.96458    391.93928   -14.499146   -249.80085    235.93663          480          480          480 
   38000       190000    1.1251514   -258.24576    378.94524   -14.134963   -257.12061    243.25335          480          480          480 
   39000       195000    1.0862488   -264.72339    365.84304    -13.65981   -263.63714     249.7677          480          480          480 
   40000       200000    1.0995443   -270.94531    370.32091   -14.009262   -269.84577    255.97456          480          480          480 
   41000       205000    1.1067295   -277.32683    372.74084   -14.681589    -276.2201    262.34712          480          480          480 
   42000       210000    1.0871504   -283.45418    366.14668   -14.982338   -282.36703     268.4925          480          480          480 
   43000       215000    1.1171028   -289.52279    376.23451   -15.427264   -288.40568     274.5298          480          480          480 
   44000       220000     1.146586   -296.13412    386.16429   -15.957649   -294.98753    281.11003          480          480          480 
   45000       225000    1.1228034   -302.66181    378.15443   -15.817259   -301.53901    287.65992          480          480          480 
   46000       230000    1.1237525   -308.94735    378.47409   -15.696924    -307.8236    293.94312          480          480          480 
   47000       235000    1.1211509   -315.26196    377.59789    -15.47986    -314.1408    300.25897          480          480          480 
   48000       240000    1.0739223    -321.1452    361.69153   -14.995153   -320.07127     306.1883          480          480          480 
   49000       245000    1.0382638   -326.11395    349.68195   -14.579839   -325.07569    311.19204          480          480          480 
   50000       250000    1.0523681   -331.00189     354.4322   -14.878757   -329.94952    316.06534          480          480          480 
   51000       255000    1.0559367   -335.85737    355.63408   -14.711035   -334.80144    320.91677          480          480          480 
   52000       260000    1.0484439   -340.58746    353.11054   -14.302011   -339.53901    325.65393          480          480          480 
   53000       265000    1.0338433   -345.02507    348.19315   -13.845144   -343.99122    330.10583          480          480          480 
   54000       270000    1.0358268   -349.20127    348.86116   -13.926548   -348.16544    334.27982          480          480          480 
   55000       275000    1.0614492   -353.50678    357.49065   -14.598301   -352.44533    338.55948          480          480          480 
   56000       280000    1.0701368   -357.96102    360.41658   -15.227524   -356.89088    343.00481          480          480          480 
   57000       285000    1.1048183   -362.58218    372.09715   -15.842729   -361.47737    347.59105          480          480          480 
   58000       290000    1.1458548   -367.87726    385.91802   -16.673566   -366.73141    352.84473          480          480          480 
   59000       295000    1.1234588   -373.40146    378.37516   -16.729195     -372.278    358.39084          480          480          480 
   60000       300000    1.0675288   -378.41892    359.53823   -15.769918   -377.35139    363.46381          480          480          480 
   61000       305000    1.0450508   -382.86572    351.96776    -14.88004   -381.82067    367.93281          480          480          480 
   62000       310000    1.0294846   -387.04271    346.72516    -14.41154   -386.01323    372.12516          480          480          480 
   63000       315000   0.98947443   -390.66433    333.24992   -13.543859   -389.67485    375.78666          480          480          480 
   64000       320000   0.99436128   -393.80844    334.89579   -13.229953   -392.81408    378.92582          480          480          480 
   65000       325000    1.0268537   -397.14922    345.83908   -13.838533   -396.12237    382.23405          480          480          480 
   66000       330000    1.0164948   -400.46219    342.35023   -13.975353    -399.4457    385.55732          480          480          480 
   67000       335000   0.99297067   -403.48882    334.42744   -13.953785   -402.49585    388.60743          480          480          480 
   68000       340000     1.051016     -406.496     353.9768   -14.384798   -405.44498    391.55653          480          480          480 
   69000       345000     1.080763   -410.17702    363.99544   -15.387376   -409.09626    395.20775          480          480          480 
   70000       350000    1.0749635   -414.16321     362.0422   -15.631401   -413.08825    399.19964          480          480          480 
   71000       355000     1.053707   -418.08084    354.88312   -15.443982   -417.02713    403.13842          480          480          480 
   72000       360000    1.0578151   -421.93261    356.26672   -15.230532    -420.8748    406.98599          480          480          480 
   73000       365000    1.0373715   -425.74979    349.38142    -15.02815   -424.71242    410.82351          480          480          480 
   74000       370000    1.0017286   -429.07918    337.37708   -14.388898   -428.07745    414.18847          480          480          480 
   75000       375000    1.0137153   -432.23787    341.41411   -14.039455   -431.22415    417.33512          480          480          480 
   76000       380000   0.99180772   -435.07577    334.03576    -13.99918   -434.08396     420.1949          480          480          480 
   77000       385000   0.99278941   -437.87133    334.36639   -14.011441   -436.87854    422.98946          480          480          480 
   78000       390000   0.98622975   -440.33406    332.15713   -13.833143   -439.34783    425.45873          480          480          480 
   79000       395000    1.0330847   -442.89855    347.93763   -14.255214   -441.86547    427.97635          480          480          480 
   80000       400000    1.0533209   -446.06874     354.7531   -15.155972   -445.01542    431.12628          480          480          480 
   81000       405000    1.0625096   -449.48099    357.84778   -15.702736   -448.41848    434.52929          480          480          480 
   82000       410000    1.1005028   -453.43413    370.64372    -15.98791   -452.33363    438.44435          480          480          480 
   83000       415000    1.0631291   -457.61745    358.05644   -15.778809   -456.55432    442.66492          480          480          480 
   84000       420000    1.0369712   -461.36278    349.24658    -14.84549   -460.32581    446.43631          480          480          480 
   85000       425000    1.0537227   -465.16595     354.8884   -14.371839   -464.11223    450.22263          480          480          480 
   86000       430000     1.014074   -468.73977    341.53492   -13.862105   -467.72569    453.83601          480          480          480 
   87000       435000    1.0048932   -471.91399     338.4429   -13.144375    -470.9091    457.01937          480          480          480 
   88000       440000   0.95675795   -474.64651    322.23118   -12.454788   -473.68975    459.79998          480          480          480 
   89000       445000   0.91260014    -476.3895    307.35906   -11.449202    -475.4769    461.58712          480          480          480 
   90000       450000    0.9925823   -477.92022    334.29664   -11.407642   -476.92763    463.03786          480          480          480 
   91000       455000    1.0233188   -480.07461    344.64854   -12.645917   -479.05129    465.16151          480          480          480 
   92000       460000    1.0270331   -482.83719    345.89949   -13.149595   -481.81016    467.92036          480          480          480 
   93000       465000   0.99065796   -485.41096    333.64853    -12.63305    -484.4203    470.53049          480          480          480 
   94000       470000   0.99147468   -488.02909     333.9236   -12.305744   -487.03762    473.14779          480          480          480 
   95000       475000    1.0348881   -490.63218    348.54501   -12.410253   -489.59729    475.70745          480          480          480 
   96000       480000    1.0210573   -493.57413    343.88686   -13.165415   -492.55307     478.6632          480          480          480 
   97000       485000   0.97805954   -496.20805    329.40545    -12.85685   -495.22999    481.34009          480          480          480 
   98000       490000   0.98246306   -498.44088    330.88853   -12.207978   -497.45842    483.56852          480          480          480 
   99000       495000   0.96723439   -500.53929    325.75959    -12.46643   -499.57205    485.68214          480          480          480 
  100000       500000    1.0388181   -502.99991    349.86863   -13.143717   -501.96109    488.07117          480          480          480 
Loop time of 1317.98 on 1 procs for 100000 steps with 256 atoms

Performance: 32.777 ns/day, 0.732 hours/ns, 75.874 timesteps/s
98.7% CPU use with 1 MPI tasks x no OpenMP threads

MPI task timing breakdown:
Section |  min time  |  avg time  |  max time  |%varavg| %total
---------------------------------------------------------------
Pair    | 1289.3     | 1289.3     | 1289.3     |   0.0 | 97.83
Bond    | 0.0041896  | 0.0041896  | 0.0041896  |   0.0 |  0.00
Neigh   | 14.091     | 14.091     | 14.091     |   0.0 |  1.07
Comm    | 0.53667    | 0.53667    | 0.53667    |   0.0 |  0.04
Output  | 13.43      | 13.43      | 13.43      |   0.0 |  1.02
Modify  | 0.45105    | 0.45105    | 0.45105    |   0.0 |  0.03
Other   |            | 0.1431     |            |       |  0.01

Nlocal:        256.000 ave         256 max         256 min
Histogram: 1 0 0 0 0 0 0 0 0 0
Nghost:        625.000 ave         625 max         625 min
Histogram: 1 0 0 0 0 0 0 0 0 0
Neighs:        0.00000 ave           0 max           0 min
Histogram: 1 0 0 0 0 0 0 0 0 0
FullNghs:      4120.00 ave        4120 max        4120 min
Histogram: 1 0 0 0 0 0 0 0 0 0

Total # of neighbors = 4120
Ave neighs/atom = 16.093750
Ave special neighs/atom = 0.0000000
Neighbor list builds = 10000
Dangerous builds = 0
Total wall time: 0:21:58
