

128 atoms
2 atom types

0 7.906793224 xlo xhi
0 12.259055612 ylo yhi
0 12.259055612 zlo zhi
0.0 0.0 0.0 xy xz yz

Masses

1 12.011
2 15.999 

Atoms # atomic

1	1	2.65488	9.89808	9.8914
2	1	6.74693	11.73966	1.26279
3	1	0.00085	3.35779	8.46853
4	1	7.65052	11.98361	4.18027
5	1	6.14489	11.04387	2.07116
6	1	6.37492	4.18354	2.6381
7	1	7.13029	0.7481	2.64474
8	1	3.76467	8.31864	9.96978
9	1	3.49496	11.89683	1.90037
10	1	6.69019	0.97235	7.61981
11	1	6.62123	5.13516	11.68142
12	1	1.09898	5.35614	9.47718
13	1	0.1172	0.53005	6.44019
14	1	7.5034	9.71469	7.23072
15	1	2.44726	0.92979	8.49707
16	1	4.12669	6.41095	7.80429
17	1	4.73446	1.31884	0.99514
18	1	4.98941	10.73135	11.32416
19	1	6.61054	6.31659	9.48955
20	1	0.07291	9.10299	1.67194
21	1	3.25033	10.38074	1.42366
22	1	5.05963	4.47847	10.09529
23	1	5.99831	9.09973	1.78642
24	1	6.36488	6.40611	10.88324
25	1	5.54448	1.4142	8.47943
26	1	1.9972	3.03444	3.97341
27	1	0.35196	8.64325	7.00911
28	1	0.00848	1.80171	2.35143
29	1	5.80576	10.09423	4.88867
30	1	6.90843	5.50591	0.67969
31	1	1.80215	3.56954	11.5588
32	1	7.80334	3.91212	11.38542
33	1	5.02877	1.93489	9.58567
34	1	5.60307	8.55824	0.34691
35	1	5.53764	7.01275	3.85249
36	1	4.06322	6.55756	0.95412
37	1	3.65916	9.26342	2.67525
38	1	6.73985	9.06879	11.1156
39	1	1.02668	9.78449	9.86611
40	1	3.69145	4.99193	1.03878
41	1	5.25946	9.54792	6.20152
42	1	5.78839	9.77635	11.66042
43	1	4.32259	12.12948	0.57177
44	1	1.42773	6.79632	2.87667
45	1	1.36637	6.61629	6.56377
46	1	4.64454	11.20754	4.51687
47	1	0.62228	9.22296	11.45231
48	1	1.03362	7.92194	11.88262
49	1	4.77761	2.00914	4.87905
50	1	4.6611	6.00981	3.67182
51	1	7.02941	7.60746	5.66051
52	1	2.12352	3.2935	6.94526
53	1	6.06456	0.69027	0.58594
54	1	7.74391	5.11239	9.1048
55	1	5.09857	11.87173	10.37479
56	1	1.56013	9.53116	0.11503
57	1	2.14055	12.25904	2.1688
58	1	6.30284	7.36806	12.03849
59	1	6.80955	7.87294	8.78239
60	1	5.89023	8.19154	6.4165
61	1	5.15853	4.68898	5.48482
62	1	1.56335	0.56558	11.77331
63	1	3.43303	11.90178	7.76912
64	1	4.00035	11.98651	5.28848
65	2	1.69278	1.02924	9.33333
66	2	6.72549	9.5619	4.1589
67	2	4.63348	0.65238	6.51725
68	2	6.45001	4.67892	5.88811
69	2	7.88373	2.64625	3.43664
70	2	3.01201	3.40855	3.41693
71	2	0.67762	12.25211	7.32195
72	2	3.35363	7.34863	1.33813
73	2	4.07496	1.43753	3.94945
74	2	7.14832	3.03914	11.29395
75	2	3.61254	5.894	3.8298
76	2	7.15389	8.87438	9.51013
77	2	4.03676	4.37982	10.97698
78	2	4.11719	2.55542	0.89316
79	2	0.36746	0.95167	5.24209
80	2	4.85452	8.95774	10.13985
81	2	0.7229	10.84857	9.40339
82	2	6.73981	3.4217	1.88998
83	2	5.42987	6.20585	9.74453
84	2	3.02437	6.15082	8.10976
85	2	2.53455	1.3856	12.01984
86	2	7.78698	4.93453	1.18198
87	2	3.36965	7.27527	10.59764
88	2	6.31442	0.04072	10.00881
89	2	2.15394	5.21787	9.90156
90	2	5.13342	11.65491	2.77621
91	2	4.45836	1.98577	10.64975
92	2	4.38384	3.80631	5.21791
93	2	6.32198	6.3924	1.5908
94	2	2.68334	11.17768	7.0653
95	2	2.181	6.65377	5.76659
96	2	0.95535	5.81567	3.22545
97	2	5.88145	3.61637	9.87795
98	2	2.76981	12.05924	4.91619
99	2	0.72796	7.08489	11.11171
100	2	0.70897	11.17343	4.39749
101	2	4.4057	5.62209	6.56739
102	2	5.67374	2.36572	4.28677
103	2	4.51796	11.62774	8.38621
104	2	4.98701	4.71132	0.83266
105	2	0.6866	1.80103	1.05997
106	2	1.48714	8.31575	7.42584
107	2	3.17637	10.75887	9.88363
108	2	7.32702	6.5898	5.50155
109	2	4.61035	2.21669	7.87872
110	2	2.54943	0.8404	3.09251
111	2	0.48255	6.47479	7.33984
112	2	4.82383	8.55273	2.2717
113	2	7.60644	10.90501	6.8425
114	2	6.50598	4.85235	3.56536
115	2	0.69157	2.97745	9.52519
116	2	2.28309	3.49973	0.39942
117	2	5.79485	8.08433	7.86977
118	2	3.93732	9.20345	6.63258
119	2	1.75875	4.04871	7.75728
120	2	2.21802	2.40737	6.2447
121	2	3.18377	8.62897	3.47082
122	2	3.4194	9.75501	0.38514
123	2	7.11256	2.6155	7.74732
124	2	1.50116	11.18343	1.69713
125	2	0.68423	9.15838	2.72979
126	2	2.5937	4.97037	1.86281
127	2	6.57211	7.49751	3.66619
128	2	4.12291	7.64055	6.64104