ITEM: TIMESTEP
0
ITEM: NUMBER OF ATOMS
128
ITEM: BOX BOUNDS pp pp pp
0.0000000000000000e+00 7.9067932240000003e+00
0.0000000000000000e+00 1.2259055611999999e+01
0.0000000000000000e+00 1.2259055611999999e+01
ITEM: ATOMS element xu yu zu fx fy fz
C 4.73446 1.31884 0.99514 -10.9407 67.2291 -66.9617
O 3.61254 5.894 3.8298 -358.943 -39.9088 61.7713
C 1.36637 6.61629 6.56377 -27.3057 -40.6527 21.3191
C 3.49496 11.8968 1.90037 69.3246 -102.382 -123.294
C 6.30284 7.36806 12.0385 -48.1542 49.8959 -43.8733
O 6.73981 3.4217 1.88998 -66.1958 -116.857 -87.7847
O 4.11719 2.55542 0.89316 125.153 -170.785 36.6199
C 6.73985 9.06879 11.1156 172.645 -15.8937 -39.6463
C 4.00035 11.9865 5.28848 -97.667 77.0233 55.8949
O 4.85452 8.95774 10.1398 -96.4562 -60.6218 -64.0341
C 0.35196 8.64325 7.00911 71.97 25.5273 21.4944
O 0.70897 11.1734 4.39749 -85.9283 52.0913 -36.8888
C 5.05963 4.47847 10.0953 -140.266 -53.6394 95.3239
O 5.42987 6.20585 9.74453 -172.123 3.84221 -22.5267
C 5.25946 9.54792 6.20152 -51.2221 -46.3036 -52.1998
O 4.03676 4.37982 10.977 93.5974 16.7608 -82.9603
C 4.06322 6.55756 0.95412 14.2442 -101.128 -47.5844
C 0.07291 9.10299 1.67194 18.3367 4.01275 104.084
O 2.54943 0.8404 3.09251 -121.711 -39.9957 -87.4801
C 1.9972 3.03444 3.97341 71.6872 50.9981 -48.0129
O 6.31442 0.04072 10.0088 -95.7007 -35.0235 49.2179
C 6.80955 7.87294 8.78239 -29.5659 -31.9045 12.6707
C 1.03362 7.92194 11.8826 5.62943 14.0474 -4.12542
C 2.12352 3.2935 6.94526 5.04287 41.6877 23.1892
O 5.67374 2.36572 4.28677 212.162 50.2319 -31.0989
C 4.32259 12.1295 0.57177 -40.3272 81.2327 73.8316
O 3.93732 9.20345 6.63258 66.1457 107.933 -32.8938
O 0.67762 12.2521 7.32195 90.9374 61.8159 69.8497
O 0.6866 1.80103 1.05997 -80.3393 12.75 144.285
C 7.02941 7.60746 5.66051 -138.867 311.282 106.131
C 1.02668 9.78449 9.86611 40.8039 5.14573 83.2423
C 7.5034 9.71469 7.23072 9.75019 95.5944 -47.7445
C 7.65052 11.9836 4.18027 93.5073 -43.9428 -17.2802
O 3.02437 6.15082 8.10976 -13.7595 33.0733 38.0607
C 5.60307 8.55824 0.34691 91.7294 19.5308 -4.23355
C 5.53764 7.01275 3.85249 -35.2279 -26.8236 -22.0823
O 1.48714 8.31575 7.42584 -11.2918 82.4901 2.09917
O 2.76981 12.0592 4.91619 37.8916 -1.68884 71.6713
O 0.7229 10.8486 9.40339 -28.2032 -0.22132 5.95203
C 7.13029 0.7481 2.64474 10.2873 -73.99 9.66383
C 5.09857 11.8717 10.3748 150.442 -49.1498 35.6442
C 5.89023 8.19154 6.4165 14.7882 44.5959 12.9411
C 4.12669 6.41095 7.80429 24.9055 -19.9336 -123.349
C 6.36488 6.40611 10.8832 25.256 -5.35953 153.425
C 0.00848 1.80171 2.35143 64.8766 47.8661 -30.7068
O 4.07496 1.43753 3.94945 -3.51766 14.8484 52.5092
O 5.79485 8.08433 7.86977 55.7215 -20.6951 10.66
C 1.09898 5.35614 9.47718 -35.5858 27.3282 1.29858
C 3.65916 9.26342 2.67525 40.6142 118.944 -128.63
C 4.77761 2.00914 4.87905 -106.837 -84.9093 -13.9267
O 4.82383 8.55273 2.2717 94.2027 71.9774 -2.84769
O 6.32198 6.3924 1.5908 23.6828 3.58481 -55.0006
C 6.14489 11.0439 2.07116 -124.375 -104.564 138.37
O 2.5937 4.97037 1.86281 95.6577 6.62139 -99.1924
C 0.62228 9.22296 11.4523 -36.2625 48.0776 -70.9251
O 3.35363 7.34863 1.33813 -103.611 74.7774 -14.9253
O 1.75875 4.04871 7.75728 29.9884 26.1993 -32.6419
C 0.1172 0.53005 6.44019 -55.9319 92.5203 -72.24
O 7.11256 2.6155 7.74732 41.4498 28.984 21.7244
C 2.65488 9.89808 9.8914 -376.47 -600.33 8.12285
O 3.18377 8.62897 3.47082 -148.21 -48.8053 179.374
C 6.06456 0.69027 0.58594 -16.7345 -23.1498 41.7863
O 2.21802 2.40737 6.2447 29.927 -83.0727 -53.7648
O 0.36746 0.95167 5.24209 -36.5837 -1.48644 40.0545
O 6.72549 9.5619 4.1589 -85.3581 96.7703 95.4436
O 4.4057 5.62209 6.56739 38.7364 -30.591 28.3151
O 3.36965 7.27527 10.5976 38.6733 92.1234 -43.3986
C 3.25033 10.3807 1.42366 48.0178 1.72626 78.1034
C 5.15853 4.68898 5.48482 94.2713 35.8309 121.892
C 3.69145 4.99193 1.03878 17.114 50.4732 60.1315
C 6.61054 6.31659 9.48955 205.2 34.4923 -101.632
O 4.61035 2.21669 7.87872 41.1753 -0.406954 2.58496
C 0.00085 3.35779 8.46853 -31.1567 -35.2359 67.9768
O 4.45836 1.98577 10.6497 14.4606 -18.2333 -35.8705
O 0.69157 2.97745 9.52519 -53.7102 -8.89465 -75.2345
C 5.54448 1.4142 8.47943 7.55084 11.2153 -131.939
C 5.99831 9.09973 1.78642 -25.9043 -17.4379 -80.404
C 1.42773 6.79632 2.87667 -4.10926 22.0165 -6.24571
O 4.12291 7.64055 6.64104 -12.9373 -51.3015 31.3765
C 7.80334 3.91212 11.3854 101.584 177.031 21.7914
O 1.69278 1.02924 9.33333 -31.0258 -2.11021 76.0214
C 1.56335 0.56558 11.7733 113.156 87.8711 22.6873
O 2.68334 11.1777 7.0653 20.1043 -4.03181 40.8729
O 5.88145 3.61637 9.87795 -34.4626 25.7636 -65.0407
C 6.62123 5.13516 11.6814 21.8241 37.7173 -90.3074
O 4.63348 0.65238 6.51725 -34.8257 -65.97 -110.818
O 4.38384 3.80631 5.21791 -23.3136 9.96401 39.5822
O 3.4194 9.75501 0.38514 -28.9485 5.89394 -33.6654
O 2.15394 5.21787 9.90156 24.6604 -5.93335 29.1893
O 6.57211 7.49751 3.66619 66.622 21.2817 -40.9765
O 0.48255 6.47479 7.33984 26.2101 -71.3824 33.5809
O 2.181 6.65377 5.76659 7.93434 -3.36093 -56.5996
O 7.32702 6.5898 5.50155 113.695 -289.397 -79.4026
C 5.02877 1.93489 9.58567 -33.1689 -5.43022 124.397
O 0.68423 9.15838 2.72979 -30.6448 -43.0916 -83.8492
O 7.14832 3.03914 11.294 -106.286 -241.237 51.5522
C 6.90843 5.50591 0.67969 -89.0445 150.05 48.3146
C 1.56013 9.53116 0.11503 -12.5762 10.5306 11.3585
C 6.37492 4.18354 2.6381 -23.4953 18.9055 59.4489
C 3.43303 11.9018 7.76912 -10.4108 -17.2387 14.4853
C 4.64454 11.2075 4.51687 169.213 -130.322 -39.0753
C 6.74693 11.7397 1.26279 82.9005 188.81 -138.055
O 1.50116 11.1834 1.69713 1.51009 81.4895 21.9993
O 5.13342 11.6549 2.77621 33.2664 -75.7817 4.37439
O 6.50598 4.85235 3.56536 34.0739 4.32579 12.6818
O 6.45001 4.67892 5.88811 -101.446 -46.785 5.66971
O 7.60644 10.905 6.8425 -93.3051 -183.751 6.22324
C 5.78839 9.77635 11.6604 -5.76188 -56.2717 87.1474
O 0.72796 7.08489 11.1117 20.9001 -42.6059 -3.81841
O 3.17637 10.7589 9.88363 326.231 576.146 33.6659
C 4.6611 6.00981 3.67182 276.668 92.2255 -24.9913
O 4.51796 11.6277 8.38621 -20.9795 -14.7613 -39.7155
O 2.53455 1.3856 12.0198 -127.772 -168.713 -81.0801
O 4.98701 4.71132 0.83266 -103.711 -39.1641 -4.53324
C 2.44726 0.92979 8.49707 84.1805 -40.8702 -49.8922
O 7.15389 8.87438 9.51013 -23.4408 -35.1298 -9.40881
C 3.76467 8.31864 9.96978 -7.88926 -52.0914 62.7723
C 2.14055 12.259 2.1688 26.0057 -18.2019 31.4554
C 7.74391 5.11239 9.1048 -67.0555 54.9284 -8.97203
C 5.80576 10.0942 4.88867 -31.9838 -3.36328 -6.9935
O 7.88373 2.64625 3.43664 67.8329 -61.1423 -54.7736
C 6.69019 0.97235 7.61981 -45.3118 52.2335 13.4933
O 3.01201 3.40855 3.41693 -97.6482 -52.6279 18.1381
O 0.95535 5.81567 3.22545 -25.542 13.9386 26.0641
O 7.78698 4.93453 1.18198 218.17 -25.0528 65.2351
O 2.28309 3.49973 0.39942 -72.2349 5.53247 -82.0444
C 4.98941 10.7314 11.3242 -29.3626 155.726 -42.6314
C 1.80215 3.56954 11.5588 -15.1611 15.6052 51.9154
