ITEM: TIMESTEP
0
ITEM: NUMBER OF ATOMS
272
ITEM: BOX BOUNDS pp pp pp
0.0000000000000000e+00 1.6500000000000000e+01
0.0000000000000000e+00 1.6500000000000000e+01
0.0000000000000000e+00 1.6500000000000000e+01
ITEM: ATOMS element xu yu zu fx fy fz
N 8.20107 14.6118 0.04871 -51.2683 -36.7661 -64.1214
N 7.84129 14.1946 15.2089 41.2925 20.61 57.3095
N 7.89334 13.8032 14.1387 -5.89548 1.02114 3.67224
N 8.00619 6.95301 1.98271 -57.4301 1.78777 -44.9307
N 8.04332 8.17293 2.21449 15.9736 -17.2115 1.14258
N 8.25319 9.27711 2.48044 -8.51627 -4.26945 -10.4398
N 16.0082 4.16587 8.47645 -49.4414 -95.1778 78.2396
N 16.0894 5.29136 8.07942 -77.4828 -361.383 143.491
N 16.3344 6.23052 7.71017 93.7358 433.699 -162.415
N 9.86749 1.40155 13.3473 13.9382 15.9751 13.5075
N 10.2382 2.2846 14.1531 -0.624197 52.6346 26.052
N 10.4518 3.20844 14.8924 -12.4781 -76.8103 -58.742
N 4.13279 4.55647 10.6528 -15.7852 -35.2333 35.853
N 3.0644 3.84465 10.5697 214.305 131.271 43.2319
N 2.13727 3.43676 10.1806 -179.63 -84.8093 -61.3478
N 9.57846 8.01599 14.691 -56.2747 44.248 -73.8439
N 9.81059 7.29171 15.592 84.7866 -149.616 144.326
N 10.24 6.43355 16.3824 -52.3404 95.9862 -83.5869
N 6.26002 1.11809 13.903 37.9815 31.8479 9.42205
N 5.73435 2.2515 14.1366 157.676 -319.611 -25.2094
N 5.26297 3.2002 14.1286 -137.834 288.441 12.7334
N 11.4405 2.77827 10.6406 62.7665 -11.0328 -2.32315
N 12.7755 2.94538 10.545 -785.579 -130.655 162.503
N 13.7225 3.12784 10.3109 706.38 131.158 -159.238
N 6.90302 6.52693 13.9088 5.23119 -29.821 -22.351
N 7.34607 5.78932 12.9836 -22.2863 -22.1049 -9.70853
N 7.6448 5.03629 12.1197 -13.7499 44.7396 52.8708
N 3.53117 13.1721 0.72688 -45.3798 -29.4853 38.9877
N 2.96122 13.0327 1.90852 47.8557 -35.1886 33.7002
N 2.93655 12.7063 3.06965 -13.3433 37.7971 -103.445
N 13.4098 14.845 13.7305 -69.0159 8.27037 39.3629
N 12.4011 14.6022 14.7377 268.01 45.3179 -229.223
N 11.572 14.4704 15.3942 -201.308 -43.0986 167.52
N 7.13197 8.74471 11.6233 -58.7024 63.8643 21.8859
N 6.27583 9.78315 12.0542 -47.8115 -2.05885 41.7161
N 5.37783 10.4172 12.6095 107.593 -68.8761 -69.513
N 1.20373 13.4171 7.7883 -4.03823 -3.57494 27.2802
N 1.65803 13.2869 8.95716 -94.958 28.0603 -210.047
N 2.17884 13.1091 9.89793 79.6345 -30.9663 167.356
N 2.52479 1.81527 12.9604 -60.6018 93.2013 133.569
N 2.80435 1.21777 12.0031 -69.2292 101.616 164.079
N 3.20554 0.65871 11.1973 118.677 -184.202 -272.614
N 4.46315 13.7266 6.63794 -16.8891 19.8032 -10.3041
N 3.60886 14.6123 6.31213 163.487 -205.896 85.2915
N 3.03248 15.4664 5.9882 -137.877 172.569 -65.5356
N 9.76288 15.5382 6.93366 55.4191 -41.4742 -42.9922
N 8.71693 15.9307 7.31769 -201.924 52.8714 43.0088
N 7.60731 16.2789 7.61335 110.436 -27.9675 -22.056
N 3.38867 10.8174 5.12906 205.854 -181.434 101.326
N 3.60417 11.0866 6.30285 19.9408 -21.4343 194.92
N 3.69274 11.1164 7.59793 -10.2108 -10.3277 -175.548
N 5.29142 15.3119 16.2775 -6.07989 58.0003 42.4379
N 5.44665 0.05971 0.30802 -33.7908 -197.956 -72.1492
N 5.70327 1.08837 0.59808 18.5223 119.104 41.6597
N 3.16398 5.96086 4.90974 87.3425 108.379 -83.5357
N 3.10923 5.35161 5.92137 -86.4975 -102.07 99.6241
N 2.56578 4.61908 6.64953 35.4904 19.0779 13.3584
N 4.9179 14.2726 13.4857 -28.9623 -4.71298 31.5672
N 3.79982 13.6563 13.4207 62.9656 47.7032 6.86047
N 2.73952 13.2584 13.3162 -18.9001 -13.1971 3.63909
N 6.59031 8.45213 16.0729 -105.636 -275.313 62.0889
N 6.8446 9.48674 15.7563 57.1416 246.626 -64.0638
N 7.07522 10.5933 15.475 0.545751 9.57431 -6.39588
N 15.9202 7.69004 16.1167 -32.6629 -10.4946 3.2188
N 15.2554 8.19466 15.1786 166.024 -174.646 207.263
N 14.7572 8.91524 14.56 -145.825 184.084 -186.969
N 10.242 0.28591 16.2651 68.3017 79.4887 43.5208
N 10.7357 1.21609 0.64697 -38.4238 -74.1747 -62.923
N 11.3253 1.96067 1.2805 -1.4207 5.91144 9.04482
N 11.7187 10.6265 5.50712 -12.0573 -47.8177 9.50617
N 11.7674 9.35269 5.67341 72.6002 -113.043 2.36086
N 12.2123 8.12956 5.76742 -61.4623 157.59 -11.8293
N 7.75913 2.68809 1.85531 10.8143 -25.4433 52.5788
N 7.87622 3.46042 0.94962 -4.36627 84.2297 -154.522
N 7.86586 4.09773 16.4034 7.94084 -61.2541 111.651
N 16.4949 9.86792 3.80251 -28.3011 39.7374 36.8889
N 0.09248 10.7546 4.76201 26.787 -28.491 -35.5273
N 0.51244 11.449 5.5856 -21.5023 -5.21148 -16.9375
N 9.06446 12.0284 6.42384 230.49 326.259 -329.284
N 8.51435 11.3616 7.0505 -237.12 -316.353 315.111
N 7.98779 10.6513 7.79098 -23.4627 -8.82158 -3.88932
N 6.19908 4.38628 4.09242 48.6254 21.225 89.4963
N 5.60951 4.73592 3.11554 138.085 -181.217 429.454
N 5.37451 5.14067 2.21444 -172.132 222.924 -526.156
N 10.026 12.2017 0.26885 60.8329 -19.7347 4.13041
N 10.6149 10.9959 0.181 -240.26 544.485 99.7991
N 11.011 10.0798 16.4656 213.748 -474.89 -98.1184
N 13.2779 7.32554 2.27477 -0.448476 42.7447 24.6487
N 12.2978 6.90347 2.93195 462.97 335.821 -236.151
N 11.564 6.2615 3.22047 -447.632 -359.04 188.515
N 10.0396 8.50572 10.6515 -58.6522 -70.7148 323.383
N 10.4495 8.91718 9.69914 40.5664 43.0049 -141.49
N 10.7543 9.17508 8.66692 57.3064 49.2959 -126.559
N 10.3005 3.81191 4.06235 28.5271 -2.49013 -95.5664
N 9.87861 3.49126 5.10766 -123.02 -90.3351 179.617
N 9.25471 3.11261 6.05361 63.9954 36.5393 -74.7412
N 16.1499 2.65669 5.97402 156.658 -127.94 -211.035
N 15.9534 1.26491 5.62227 11.5266 203.061 58.5488
N 16.1177 0.2128 5.32537 14.0013 -105.629 -29.7876
N 14.869 14.0599 6.39139 -60.1447 -217.616 -143.124
N 14.8399 14.08 5.11758 30.6737 -30.7886 412.116
N 14.7458 14.2415 4.08059 -22.3432 43.0841 -342.825
N 9.804 11.8497 9.78667 485.922 -27.3502 -520.912
N 9.0638 12.0031 10.4954 -516.622 6.84893 597.802
N 8.3826 11.7974 11.4604 10.9809 44.9576 -49.9431
N 14.0545 0.84464 16.4832 148.636 -145.489 232.746
N 13.6145 1.10361 15.4806 -7.07272 -25.0186 21.1117
N 13.277 1.61921 14.6074 -98.5712 116.919 -269.882
N 12.2461 9.74872 12.8811 -19.7867 47.4215 11.9014
N 11.7858 10.8928 13.2951 125.534 -266.103 -92.1212
N 11.3056 11.7996 13.6098 -101.791 205.554 69.3346
N 15.2375 13.8247 0.0996 -43.5191 28.4489 138.362
N 15.969 13.7791 15.6943 112.352 -31.5943 -233.681
N 16.4985 13.6835 14.6033 -35.6149 15.7771 115.39
N 0.01 0.86001 9.30931 -104.513 -65.0078 126.741
N 16.4964 0.60413 10.608 -25.4097 9.95817 4.76417
N 16.2513 0.47185 11.772 19.605 4.50775 -93.745
N 16.3896 16.3319 1.99557 82.5189 -22.6609 8.63208
N 1.18431 16.1294 2.20978 61.841 -33.5628 -21.5283
N 2.38403 15.79 2.18864 -150.144 54.2977 9.04921
N 6.60617 14.8782 11.2569 -27.3076 -13.8217 -26.7364
N 5.76605 14.5586 10.2411 418.755 125.834 631.918
N 5.23544 14.4124 9.40823 -379.946 -112.528 -575.527
N 8.08671 1.00338 10.7748 -77.8912 5.69214 21.625
N 6.95854 1.6455 11.0289 148.458 -76.5568 -38.8948
N 6.12733 2.367 11.1473 -77.9635 55.7625 8.35421
N 14.1493 5.86526 5.4505 34.3706 -1.04922 -20.2612
N 15.1639 5.67629 4.67184 -216.051 65.3041 169.856
N 15.9319 5.39313 3.96215 161.356 -46.0052 -141.032
N 3.77404 8.77851 9.78396 25.9013 30.7971 -25.3351
N 4.60751 7.87673 9.51722 -73.8877 71.4207 13.3338
N 5.02876 6.88881 9.16137 45.2502 -46.7831 -20.2968
N 11.732 6.22523 9.38939 82.158 36.6586 43.2281
N 11.2634 6.08788 8.32359 -57.1289 -35.1215 -191.271
N 10.8625 5.87321 7.22629 23.4732 15.5943 92.972
N 7.24557 5.1848 8.72789 143.932 312.297 329.515
N 6.87541 4.49953 8.00638 -221.567 -382.881 -409.024
N 6.28487 3.73276 7.15414 61.1494 73.5777 93.0238
N 2.10872 5.79935 16.3123 -76.6721 35.0582 43.2166
N 3.15795 6.05553 15.866 220.338 102.047 -114.204
N 4.18106 6.54866 15.3081 -115.037 -70.3544 68.6775
N 14.263 1.75084 2.85389 -16.8934 3.01886 2.1558
N 13.567 2.11727 3.81562 -14.1939 28.1585 111.306
N 13.1092 2.44891 4.84792 21.2906 -25.0085 -76.6901
N 14.3771 4.52755 1.32425 -20.6601 22.664 107.428
N 14.5797 3.96232 0.31899 64.9718 -45.4348 -274.778
N 14.9263 3.73901 15.5591 -45.4575 26.1242 153.234
N 1.36527 2.96457 3.31227 -89.8747 46.1509 -6.38138
N 2.3301 2.7513 3.97541 209.716 -59.0044 51.418
N 3.49643 2.47561 4.31899 -136.385 33.122 -31.4255
N 2.36779 9.88312 2.21711 96.5229 3.33622 -44.599
N 3.1772 8.92746 1.9356 -483.697 394.445 299.529
N 3.88401 8.40682 1.43944 455.332 -365.845 -293.081
N 14.076 0.29534 7.66007 -43.9623 -12.2058 -17.8893
N 12.9058 0.33677 8.06092 -7.56302 9.99941 22.7915
N 11.83 0.41921 8.52587 45.641 -3.57192 -24.5855
N 5.66672 16.4762 4.74509 47.8755 177.639 148.513
N 5.36444 15.6494 4.03898 -24.5084 -240.253 -217.405
N 5.33305 14.7238 3.2542 -9.71777 77.489 64.8308
N 4.44834 1.30574 7.5318 83.5049 28.6755 -13.0129
N 3.25839 1.35095 7.6179 -26.0805 13.9944 -1.41115
N 2.11195 1.4654 7.65586 -5.16799 3.42223 -1.48383
N 16.318 9.71299 8.1634 11.4458 -24.1826 63.6204
N 15.3392 9.68129 7.4483 -55.2177 10.8788 -95.9264
N 14.6284 9.79235 6.4897 34.7916 -17.7543 83.6116
N 1.17722 3.16699 0.22195 -8.0604 -71.1291 9.84875
N 0.86531 2.0726 16.0388 -19.6529 -21.3686 -34.3584
N 0.4738 1.19381 15.29 44.9616 84.3591 81.6058
N 12.7582 13.037 8.58655 2.09185 -49.1039 38.8548
N 13.1067 11.8941 9.05914 -17.2445 75.3675 -18.6404
N 13.4191 10.9946 9.68487 3.77619 -14.4989 -0.354455
N 11.8301 16.4956 11.802 -30.4997 18.2507 -8.16097
N 10.9255 15.731 11.4124 129.346 82.2806 54.7277
N 10.1541 15.1553 10.8888 -108.864 -90.5506 -61.3819
N 13.3845 11.0965 3.19231 2.72788 -46.5054 73.0288
N 12.9684 11.9386 2.45108 5.83319 25.2045 -44.8251
N 12.7894 12.6648 1.58156 -14.9568 14.7085 -0.831531
N 0.30973 11.0531 11.3753 38.3772 74.2888 -11.1218
N 16.0286 11.8501 11.947 -129.849 -0.280871 75.1109
N 15.055 12.1888 12.5741 92.9896 -16.7279 -62.8503
N 8.98603 13.6081 2.99834 13.3863 -149.42 -27.5812
N 9.07962 14.7633 2.91237 -52.3065 277.207 44.1166
N 8.82003 15.9814 3.10627 36.0513 -129.661 -30.3909
N 10.6193 5.07225 11.8562 -45.6687 5.45434 13.1318
N 11.1909 5.49845 12.8571 90.7977 28.5661 77.7309
N 11.8466 5.7849 13.7794 -38.0851 -11.2755 -50.6375
N 0.59902 8.3634 11.1641 -95.0076 10.2381 -58.6339
N 1.53495 7.9088 11.6775 207.121 -134.265 121.579
N 2.47436 7.27815 12.2386 -106.024 77.8076 -63.7371
N 9.10484 8.10511 5.18787 -22.2292 -30.8662 25.9326
N 7.83956 8.10768 5.37772 323.943 -16.5187 -25.5601
N 6.77552 8.17777 5.42758 -277.796 11.3876 24.1091
N 3.42249 10.4084 15.5481 9.77513 26.5923 16.9871
N 2.5793 9.64908 15.0834 226.779 187.65 91.2411
N 1.77691 9.02006 14.7824 -228.953 -185.895 -101.023
N 15.037 6.03046 11.2232 -65.2266 122.5 -82.9
N 15.7706 5.26852 11.7057 71.8318 -73.6555 71.8643
N 16.4781 4.61465 12.3382 6.62491 -3.58023 -4.39371
N 11.8412 14.6341 5.10159 -59.275 33.9662 -48.7871
N 11.7911 15.2785 3.88273 -49.0184 -170.127 343.563
N 12.0613 15.7259 2.96228 66.3515 136.794 -276.095
N 6.73076 12.0566 4.81448 69.1568 130.74 347.542
N 6.32422 11.788 3.84468 -126.395 -144.886 -447.358
N 6.03357 11.4182 2.69048 13.9829 37.8508 106.265
H 7.39821 14.0732 0.49178 18.602 18.6054 -5.51264
H 7.17256 6.68466 1.17834 51.7874 26.5736 52.4635
H 15.4194 3.98171 9.42382 34.109 28.359 -63.3452
H 10.566 0.99998 12.6342 -12.666 17.5293 25.771
H 4.6668 4.17508 11.4886 -25.82 5.35288 -24.7261
H 8.61345 7.78644 14.2343 32.8077 5.13089 13.5593
H 7.31956 1.30048 13.642 -54.2241 0.947914 15.8896
H 11.1362 3.44513 11.3951 16.5933 -1.40534 -16.6279
H 6.13 6.13487 14.5411 21.8948 -0.59453 -27.9253
H 3.33382 12.2773 0.16156 4.53841 26.694 23.3347
H 14.1369 14.1541 13.913 5.72074 -15.468 9.57625
H 8.09961 9.09219 11.4485 -8.47185 10.215 2.7836
H 0.7195 12.5445 7.45271 14.4624 13.5825 15.4803
H 1.87449 2.63732 12.8342 24.0843 -23.7961 -13.8287
H 4.7355 13.7703 7.64692 -9.77861 18.9604 -11.706
H 10.4644 16.0191 7.45787 27.1876 18.4544 19.8424
H 2.78751 11.3614 4.83763 -202.594 185.997 -104.93
H 4.82696 14.7532 0.55509 9.13264 20.3422 -17.134
H 4.12837 6.46703 5.08437 -40.2144 -9.92699 -23.2611
H 5.05319 14.8488 14.4202 -16.9893 -31.5777 -33.4399
H 5.62927 7.85214 15.7134 43.4136 30.9038 13.5717
H 0.36672 7.30258 16.0903 5.22501 2.96436 -18.4988
H 9.36501 16.3827 0.03196 -35.4635 -10.3004 19.5215
H 10.8206 10.9138 5.94723 9.78853 8.07899 -4.75882
H 8.3979 2.88323 2.66606 -2.48045 -1.01156 -9.37888
H 15.4651 9.88305 3.57809 20.4488 0.896676 2.88034
H 8.422 12.4203 5.64289 16.7393 -3.92766 13.1887
H 5.95818 3.46271 4.22685 -23.0442 -64.1902 7.6978
H 10.8286 12.9582 0.12481 -36.0205 -50.7426 7.22181
H 13.5899 6.7225 1.50123 -17.6463 -13.4044 8.79732
H 10.7251 8.88784 11.5096 -36.4714 -26.5399 -49.4271
H 10.7786 4.65885 4.23807 26.7037 45.2988 -6.39196
H 15.5578 2.82362 6.60548 -169.145 33.0341 174.158
H 15.0892 14.8221 6.78856 55.3719 195.018 74.378
H 9.64717 12.6293 9.07599 22.0149 -7.47488 -15.5558
H 14.8419 0.05195 16.3031 -44.2433 44.8688 7.26127
H 13.0457 9.49899 13.485 -6.30608 11.0201 2.70024
H 15.8015 14.3546 0.85647 -23.0111 -13.6062 -6.54343
H 0.80069 1.19576 8.89078 84.0676 31.6391 -33.8514
H 16.0145 0.52816 2.66005 4.74556 4.3527 4.52605
H 6.25529 14.5299 12.2061 -9.47449 2.3866 -29.1863
H 7.74079 0.02938 10.9945 10.3071 16.8909 -5.48625
H 13.4773 6.65342 5.2181 22.8538 -13.9503 -2.40776
H 3.80831 9.61653 9.07712 8.04038 -42.0179 23.9235
H 11.1346 5.8483 10.0561 -42.5592 -26.4842 51.907
H 6.50815 5.87436 9.27204 19.0886 -11.7468 -13.0054
H 1.88039 4.84625 16.2794 -21.7889 -71.3337 3.3955
H 13.5051 1.60491 2.18856 -2.68114 -14.6821 -26.3286
H 14.3986 3.78861 2.08594 4.73031 18.5955 1.75884
H 0.70108 3.59733 3.91534 15.9518 -27.2361 -26.2273
H 1.57569 9.65884 2.70173 -70.1733 -47.8269 41.5025
H 14.8444 0.52722 8.27644 9.06616 8.74864 27.6763
H 5.00158 0.22347 5.51875 5.87699 0.431301 -6.61796
H 5.06322 2.20525 7.23435 -35.5838 -34.1037 15.6995
H 16.1313 9.27021 9.1505 3.92519 19.8579 -42.7326
H 1.218 2.99332 1.31677 -5.4344 0.576335 -50.9141
H 13.1945 13.1925 7.6895 14.9753 -6.68021 -18.0963
H 12.5919 16.018 12.2442 16.5312 -30.2227 9.32521
H 12.849 11.0899 4.13249 10.3368 7.41725 -32.3908
H 1.01636 11.8354 11.0936 -11.4235 -49.1321 -1.8862
H 9.39496 13.1555 2.11467 -10.5126 -1.47605 15.2697
H 9.64108 5.13538 12.2518 4.05051 -9.45278 -28.8914
H 0.47022 9.37002 11.1521 -0.320742 33.5445 7.31575
H 9.5496 7.22961 5.64833 -34.3794 33.5455 -12.9598
H 4.29295 10.5296 15.0257 -9.25235 -12.4957 -15.198
H 15.5377 6.91302 10.7601 -20.3322 -44.876 27.7069
H 10.8118 14.7558 5.48062 48.5194 2.31815 -17.6757
H 5.80096 12.7331 5.39701 41.8245 -25.9074 -11.1136
ITEM: TIMESTEP
4
ITEM: NUMBER OF ATOMS
272
ITEM: BOX BOUNDS pp pp pp
0.0000000000000000e+00 1.6500000000000000e+01
0.0000000000000000e+00 1.6500000000000000e+01
0.0000000000000000e+00 1.6500000000000000e+01
ITEM: ATOMS element xu yu zu fx fy fz
N 8.20091 14.6111 0.0482243 -51.5825 -36.8345 -64.0097
N 7.84169 14.1957 15.2094 41.3673 19.0987 54.1096
N 7.89369 13.8034 14.1377 -6.06488 2.43751 7.49743
N 8.00656 6.95218 1.98101 -56.2703 2.07672 -43.9031
N 8.043 8.17226 2.21475 15.9647 -15.9844 1.12875
N 8.25175 9.27705 2.48152 -8.72553 -5.84377 -10.8102
N 16.0091 4.16644 8.47634 -50.7053 -97.1165 80.5294
N 16.0889 5.29139 8.08009 -76.4095 -355.245 141.805
N 16.3354 6.23003 7.70792 93.0787 429.511 -161.822
N 9.86711 1.40219 13.3477 16.2021 14.9775 11.8179
N 10.2388 2.28457 14.1542 -1.15524 51.6631 24.9019
N 10.4518 3.20869 14.8918 -12.1306 -75.8729 -57.6958
N 4.13099 4.55607 10.655 -15.1509 -33.7955 34.5519
N 3.06503 3.84575 10.568 211.639 130.045 42.6356
N 2.13738 3.4366 10.1806 -178.262 -84.4631 -60.5733
N 9.57857 8.01675 14.6909 -55.5358 44.1903 -73.0238
N 9.81073 7.29308 15.5927 85.0828 -150.163 144.352
N 10.2404 6.43296 16.382 -52.5471 96.7135 -83.8244
N 6.2596 1.11822 13.9011 37.0571 31.6235 9.72324
N 5.73372 2.2515 14.1351 158.281 -321.298 -25.6006
N 5.26404 3.20067 14.1289 -138.194 290.07 13.2014
N 11.4409 2.77854 10.6394 61.9806 -9.95048 -1.14762
N 12.7749 2.94484 10.5445 -769.951 -126.93 157.599
N 13.7247 3.12651 10.3116 691.136 127.437 -154.338
N 6.90472 6.52719 13.9103 4.44994 -30.0891 -21.9152
N 7.34608 5.79058 12.9839 -21.8002 -22.5594 -10.1674
N 7.64612 5.03792 12.1195 -13.9813 45.1083 53.3179
N 3.52942 13.1725 0.725936 -46.4053 -33.3278 37.4455
N 2.96127 13.0315 1.90927 47.8986 -34.5408 32.5863
N 2.93614 12.7061 3.0699 -13.2951 37.4966 -102.728
N 13.4092 14.8439 13.7319 -68.1024 7.36382 39.6429
N 12.4012 14.6029 14.7373 271.665 45.8869 -232.408
N 11.5737 14.4703 15.3942 -204.752 -43.7872 170.684
N 7.13236 8.74495 11.6245 -58.072 64.1489 21.5487
N 6.27579 9.78382 12.0533 -47.905 -2.03432 42.1323
N 5.37778 10.4179 12.6092 107.698 -68.9653 -69.6887
N 1.20308 13.4182 7.78895 -5.2608 -5.48646 25.8767
N 1.65761 13.2868 8.95675 -94.9855 28.4656 -210.031
N 2.17758 13.108 9.89748 80.0276 -31.3359 168.214
N 2.5253 1.81578 12.96 -60.9136 93.6836 133.329
N 2.80518 1.21869 12.0023 -71.2107 104.977 168.45
N 3.20502 0.658634 11.1979 120.455 -187.388 -276.657
N 4.46345 13.7257 6.63852 -17.1138 20.3882 -9.98365
N 3.60981 14.6117 6.31174 160.848 -202.281 83.4703
N 3.03204 15.4671 5.99027 -135.165 168.682 -63.6666
N 9.76258 15.5379 6.93451 57.1415 -41.4612 -42.8016
N 8.71709 15.9305 7.31822 -203.883 53.4011 43.4103
N 7.60677 16.2789 7.61315 111.161 -28.1822 -22.0869
N 3.38772 10.8174 5.129 205.459 -179.768 100.259
N 3.60402 11.0862 6.30264 19.9682 -21.4971 195.226
N 3.69194 11.1152 7.59953 -10.0795 -10.2948 -175.625
N 5.29135 15.3124 16.2761 -4.6506 60.2311 40.5864
N 5.44702 0.0606593 0.308097 -34.2759 -200.18 -73.1551
N 5.70271 1.08884 0.597951 18.9908 121.184 42.2639
N 3.16377 5.96067 4.91065 85.7545 107.818 -84.2408
N 3.10729 5.35089 5.92171 -85.5811 -100.788 98.2061
N 2.5659 4.61953 6.6494 34.001 17.0079 15.4589
N 4.91697 14.273 13.4853 -28.4895 -5.4337 29.7832
N 3.80021 13.6574 13.4208 61.412 47.0009 6.61955
N 2.73965 13.2593 13.3164 -18.1383 -12.9013 3.73819
N 6.58938 8.45051 16.0724 -103.317 -267.876 60.1576
N 6.84334 9.48745 15.7548 55.1144 239.127 -61.905
N 7.07462 10.5936 15.4746 0.41364 9.45903 -6.39018
N 15.9208 7.68892 16.1161 -30.2474 -11.5748 3.25117
N 15.2552 8.19334 15.179 160.985 -167.883 200.902
N 14.7566 8.91577 14.559 -141.035 177.444 -180.938
N 10.2421 0.285862 16.2654 70.9134 81.158 42.652
N 10.7359 1.21671 0.646243 -36.6624 -72.1193 -60.8118
N 11.3262 1.96104 1.28217 -3.32031 3.48333 6.864
N 11.7177 10.6269 5.50773 -10.0538 -47.7913 8.3746
N 11.7676 9.35397 5.67376 73.0644 -114.753 2.39172
N 12.2135 8.12906 5.76784 -61.5072 157.84 -11.8764
N 7.75962 2.68896 1.8548 9.80653 -26.4322 52.43
N 7.87443 3.46141 0.949411 -3.82685 82.7191 -152.072
N 7.86561 4.0965 16.4052 7.72585 -59.3471 108.928
N 16.4956 9.86713 3.80196 -27.5234 39.9301 37.5167
N 0.0939115 10.7536 4.76176 26.2255 -29.4438 -36.7147
N 0.512498 11.4484 5.58468 -21.0076 -4.43782 -15.8948
N 9.06338 12.0294 6.42521 230.995 327.54 -329.835
N 8.51401 11.3613 7.05099 -235.643 -315.502 313.827
N 7.98907 10.6522 7.7911 -25.3623 -11.4283 -1.52179
N 6.19949 4.38673 4.09447 45.8701 18.9351 86.4924
N 5.60915 4.7357 3.11561 140.23 -183.953 436.061
N 5.37502 5.13944 2.21418 -172.137 223.173 -528.424
N 10.0262 12.2006 0.269439 61.0502 -19.7573 4.07442
N 10.6154 10.9962 0.180616 -235.171 531.386 97.5626
N 11.013 10.0787 16.4637 208.502 -461.783 -95.7134
N 13.277 7.32583 2.27438 -1.69152 44.748 27.475
N 12.2978 6.90361 2.93349 467.829 339.539 -237.386
N 11.5639 6.26193 3.21952 -452.185 -362.775 189.279
N 10.04 8.50555 10.6518 -60.0081 -71.9919 326.354
N 10.4482 8.91604 9.69946 41.907 44.3917 -145.133
N 10.7536 9.17405 8.66704 56.9873 49.1185 -125.722
N 10.3014 3.81218 4.06141 25.9237 -5.58739 -93.1314
N 9.87898 3.49041 5.10779 -120.292 -88.1182 174.589
N 9.25617 3.11262 6.05274 62.795 35.7426 -72.9712
N 16.1498 2.65744 5.97327 147.71 -126.398 -201.91
N 15.9538 1.26464 5.6217 11.6117 200.307 57.8052
N 16.1182 0.211912 5.3248 13.7613 -103.813 -29.2924
N 14.8677 14.0603 6.39128 -61.2378 -220.831 -146.835
N 14.8387 14.0806 5.11612 31.327 -32.2388 426.461
N 14.7472 14.2409 4.08115 -22.8168 44.6994 -355.72
N 9.80463 11.8498 9.78719 484.169 -28.8336 -517.012
N 9.06364 12.0042 10.4956 -517.075 6.49519 598.323
N 8.38142 11.797 11.4621 13.1828 45.4535 -52.7764
N 14.0561 0.844946 16.4851 145.976 -143.734 226.963
N 13.6163 1.10462 15.4807 -5.49534 -25.4317 24.6496
N 13.2782 1.61863 14.6066 -97.9608 115.849 -268.2
N 12.2467 9.74891 12.8812 -16.2547 46.1812 14.3755
N 11.7863 10.8932 13.2943 122.297 -259.975 -90.0722
N 11.3064 11.8013 13.6113 -98.5291 199.538 67.4734
N 15.2368 13.8257 0.0998018 -41.4346 28.6868 136.688
N 15.9686 13.7788 15.6938 112.012 -31.9849 -233.896
N 16.4999 13.6821 14.6023 -36.7658 15.9925 117.056
N 0.00860804 0.859408 9.30894 -97.2052 -61.5253 122.23
N 16.4948 0.604697 10.6086 -24.8508 9.80922 4.13148
N 16.2521 0.471699 11.7724 19.2062 4.51174 -92.9451
N 16.3901 16.3326 1.99346 84.5735 -26.084 5.58954
N 1.18566 16.1285 2.20883 60.6184 -33.0869 -21.5291
N 2.38403 15.7892 2.18831 -149.401 54.0795 8.96016
N 6.60483 14.8792 11.2567 -25.2927 -12.342 -31.5707
N 5.76596 14.558 10.2397 426.821 127.347 643.114
N 5.23456 14.4133 9.40913 -387.993 -113.777 -586.088
N 8.08587 1.00337 10.7741 -76.2982 10.2523 20.9436
N 6.95832 1.6459 11.03 144.911 -73.8485 -38.645
N 6.12647 2.3687 11.1483 -74.3021 52.8099 7.83932
N 14.15 5.86488 5.44996 32.5949 0.689297 -20.2897
N 15.1641 5.67689 4.67216 -213.571 64.3665 167.82
N 15.9324 5.39372 3.96177 159.592 -45.271 -139.463
N 3.77418 8.77843 9.78405 25.9963 31.4438 -25.9374
N 4.60821 7.87729 9.51726 -72.8858 69.0937 12.609
N 5.02849 6.88823 9.16047 44.1942 -44.6347 -19.4811
N 11.7317 6.22653 9.38902 81.727 36.1003 45.2525
N 11.2616 6.08929 8.32435 -57.6508 -35.5733 -193.744
N 10.8623 5.87385 7.22579 23.5879 15.8763 94.1201
N 7.24416 5.18563 8.72608 145.001 314.618 331.707
N 6.87513 4.49992 8.0055 -222.392 -384.902 -410.479
N 6.28406 3.73251 7.15443 61.0579 73.2299 92.4793
N 2.11044 5.79831 16.3121 -81.2365 28.0697 44.6214
N 3.15789 6.0552 15.866 223.262 103.008 -115.208
N 4.18127 6.54909 15.3092 -114.73 -70.3821 68.2553
N 14.2625 1.75108 2.85397 -16.8543 2.29424 0.13629
N 13.5671 2.11659 3.8147 -14.9071 28.9548 113.107
N 13.1102 2.44892 4.84737 21.2424 -25.1557 -76.8868
N 14.3763 4.52788 1.32435 -20.8218 23.4454 106.993
N 14.579 3.9631 0.319051 65.3413 -45.8698 -274.29
N 14.9278 3.73821 15.5591 -45.7428 26.3835 152.981
N 1.36564 2.9647 3.31168 -87.6989 43.7265 -9.71012
N 2.33028 2.75169 3.97501 211.141 -59.4061 52.4859
N 3.49707 2.47553 4.3196 -137.25 33.421 -31.8743
N 2.36741 9.88297 2.21618 104.396 5.19274 -49.1099
N 3.17708 8.92705 1.93592 -483.564 394.221 299.597
N 3.88381 8.40708 1.43883 454.49 -364.821 -293.018
N 14.0735 0.293938 7.65919 -39.4536 -11.7396 -17.2017
N 12.906 0.335851 8.06058 -11.2384 10.1212 24.0593
N 11.8299 0.418293 8.5266 46.4777 -3.6154 -25.0105
N 5.66757 16.4769 4.74465 45.253 172.353 144.713
N 5.36278 15.648 4.03801 -22.6456 -233.663 -211.685
N 5.33341 14.7235 3.25342 -9.97672 76.6432 64.2756
N 4.44952 1.30556 7.53231 80.8115 28.0424 -12.4628
N 3.25832 1.35095 7.61873 -24.8203 14.1571 -1.77498
N 2.11126 1.46556 7.6547 -3.90869 3.24365 -1.287
N 16.3182 9.71266 8.16407 11.5109 -24.2497 63.6904
N 15.3387 9.68096 7.45 -54.8649 11.0875 -95.7522
N 14.6284 9.79316 6.49212 34.1651 -17.8005 82.9225
N 1.1779 3.16636 0.221229 -8.03011 -70.6712 9.30025
N 0.863561 2.07232 16.0391 -19.0666 -21.4289 -34.4612
N 0.473886 1.19359 15.2896 44.6275 84.1835 81.542
N 12.7595 13.0352 8.58671 1.19641 -47.748 39.0961
N 13.1068 11.8952 9.06019 -16.4814 72.8233 -17.3919
N 13.4188 10.9946 9.68542 3.46507 -13.545 -0.994887
N 11.8305 16.4945 11.8013 -26.8977 18.465 -6.09153
N 10.9251 15.7326 11.4131 130.803 83.0252 55.6152
N 10.1556 15.1551 10.8906 -111.597 -92.7615 -62.9591
N 13.385 11.0975 3.19213 1.36851 -46.565 75.5675
N 12.9682 11.9399 2.45134 7.07052 20.8048 -39.9171
N 12.7887 12.6639 1.58321 -16.1661 19.0484 -5.72519
N 0.310659 11.052 11.3747 35.7777 75.7902 -9.24434
N 16.0277 11.8515 11.9477 -125.764 -2.72481 72.3339
N 15.0552 12.1892 12.5742 91.5581 -16.2621 -61.9831
N 8.98655 13.608 2.99888 13.1538 -149.086 -27.0419
N 9.0793 14.7633 2.91221 -52.4692 277.687 44.2412
N 8.81974 15.9805 3.10474 36.071 -129.617 -30.3088
N 10.6185 5.07149 11.8557 -45.1059 5.73469 14.0848
N 11.1905 5.49729 12.8579 89.3138 28.0095 76.3439
N 11.8466 5.78342 13.7802 -38.2182 -11.3087 -50.7031
N 0.598963 8.36341 11.1632 -93.7398 11.3446 -57.9408
N 1.53503 7.90928 11.6786 204.606 -132.701 119.992
N 2.47371 7.27954 12.2377 -105.335 77.3112 -63.0234
N 9.10553 8.10428 5.1879 -22.574 -29.3965 25.1489
N 7.84013 8.10933 5.37598 322.623 -16.4988 -25.3143
N 6.77559 8.17631 5.42727 -276.161 10.8167 24.2051
N 3.42173 10.4101 15.5498 9.20111 25.2149 15.7346
N 2.57932 9.64839 15.0836 222.865 184.652 89.9035
N 1.77494 9.01967 14.7822 -223.725 -181.422 -98.925
N 15.0364 6.02861 11.2219 -64.9047 122.295 -82.7518
N 15.7694 5.26739 11.7066 71.9968 -73.4765 71.8056
N 16.4775 4.61271 12.3385 6.03012 -3.01522 -4.69725
N 11.8424 14.6341 5.10219 -61.9233 33.9806 -47.7513
N 11.7912 15.2788 3.88143 -49.738 -171.036 345.272
N 12.0623 15.7266 2.96195 67.2118 137.928 -278.047
N 6.73253 12.057 4.81431 68.3104 130.015 344.814
N 6.3238 11.7882 3.84458 -125.903 -144.166 -444.684
N 6.03226 11.4186 2.69106 14.0594 37.8537 106.359
H 7.39693 14.0758 0.495043 19.0218 18.7087 -6.18549
H 7.17857 6.683 1.17932 50.7782 26.6745 51.7504
H 15.4163 3.97939 9.426 34.937 28.3435 -64.406
H 10.5704 0.9985 12.6338 -14.5544 18.4824 27.5633
H 4.66419 4.17451 11.4889 -25.1336 4.84018 -23.631
H 8.61314 7.78836 14.2386 32.0493 4.83081 12.8972
H 7.31844 1.29943 13.6423 -53.5611 1.21669 15.6131
H 11.1326 3.44518 11.3957 17.0387 -2.37872 -17.8545
H 6.13009 6.13514 14.5428 22.4599 -0.301474 -28.3528
H 3.32947 12.2715 0.160075 5.47474 30.0986 25.152
H 14.1374 14.1519 13.9137 4.49212 -14.3984 9.31496
H 8.10254 9.09085 11.4561 -9.14642 10.0246 2.82367
H 0.722368 12.5409 7.45258 15.3353 15.4206 15.9269
H 1.87365 2.63815 12.835 24.5527 -24.4477 -13.9026
H 4.73346 13.776 7.64815 -9.59951 18.7456 -12.0824
H 10.464 16.022 7.45753 26.765 18.1116 19.2697
H 2.78376 11.3599 4.83866 -202.235 184.37 -103.982
H 4.82419 14.7614 0.551486 7.76605 18.2885 -14.7336
H 4.12369 6.46383 5.08711 -38.0759 -8.59832 -23.2905
H 5.05145 14.8487 14.4151 -16.8464 -30.3935 -31.5489
H 5.63222 7.85282 15.7137 43.277 31.2363 13.4817
H 0.371475 7.30399 16.0899 2.91405 3.93068 -18.2424
H 9.36988 16.3801 0.0347172 -37.8893 -11.6789 20.4925
H 10.8207 10.909 5.9469 7.51681 9.33113 -3.75638
H 8.39427 2.88049 2.66782 -1.73268 -0.453932 -8.99262
H 15.4663 9.88263 3.58107 19.5103 0.811593 2.5111
H 8.4194 12.4176 5.64513 16.5091 -3.47174 12.6588
H 5.9583 3.46061 4.23492 -22.4397 -59.3675 6.36723
H 10.8284 12.9579 0.12775 -36.0639 -50.701 7.08069
H 13.5929 6.72148 1.50787 -16.6947 -15.3461 6.47496
H 10.7237 8.88678 11.5115 -36.1762 -26.3251 -49.5722
H 10.7817 4.65566 4.2364 27.6888 47.0015 -5.53087
H 15.556 2.8312 6.6094 -160.021 32.2695 165.264
H 15.0871 14.8194 6.79102 56.2817 198.038 76.6013
H 9.64829 12.6262 9.07832 22.0663 -6.13779 -17.0843
H 14.8411 0.0520831 16.3007 -43.8184 44.6463 7.86343
H 13.0515 9.49573 13.4855 -9.81597 12.1115 0.0745015
H 15.8068 14.3534 0.854644 -23.6268 -13.6702 -6.24944
H 0.806212 1.19626 8.88989 76.5422 28.4029 -29.7313
H 16.0163 0.525218 2.65494 3.27481 7.51147 7.70434
H 6.26044 14.5318 12.2016 -11.3666 0.603873 -25.1388
H 7.74495 0.0349052 10.9987 8.56854 12.5544 -4.84372
H 13.4806 6.65976 5.22137 23.8037 -15.4216 -2.00801
H 3.80831 9.61697 9.07562 7.95203 -42.4602 24.441
H 11.1332 5.85048 10.0567 -41.7013 -25.884 51.2369
H 6.50821 5.87385 9.27559 19.0049 -11.7416 -13.2657
H 1.87981 4.84076 16.2742 -20.4672 -65.3698 3.42509
H 13.5035 1.60222 2.18893 -1.90101 -14.624 -25.9068
H 14.3953 3.79184 2.08763 4.64448 18.0593 1.98362
H 0.704743 3.59559 3.9053 13.2359 -24.6183 -23.3925
H 1.58107 9.65527 2.69716 -77.2186 -50.485 45.8608
H 14.8458 0.527711 8.27367 7.41164 8.24065 26.1758
H 5.00234 0.220673 5.5219 6.8459 -0.0894032 -7.86808
H 5.06686 2.20238 7.23773 -35.5063 -33.4717 15.4448
H 16.128 9.26886 9.14907 4.1567 19.7502 -42.3463
H 1.22301 2.99397 1.31494 -5.60586 0.272478 -50.3248
H 13.1963 13.1907 7.69096 15.4717 -6.47436 -18.9093
H 12.5924 16.0164 12.2487 14.0728 -28.8405 8.03284
H 12.8471 11.0909 4.13607 11.6218 7.56381 -34.8515
H 1.01765 11.8329 11.0951 -11.4738 -48.6271 -1.83511
H 9.39266 13.1605 2.11337 -10.0847 -2.28046 14.4668
H 9.6385 5.13268 12.2488 5.03754 -9.09337 -28.4068
H 0.469507 9.37235 11.152 0.172391 31.3531 7.45746
H 9.55336 7.2319 5.64822 -34.2687 32.5695 -12.4907
H 4.2918 10.5368 15.0256 -9.93401 -12.5337 -14.625
H 15.5333 6.91465 10.7582 -20.125 -45.3947 27.9143
H 10.808 14.7534 5.48168 50.9658 2.20056 -18.4396
H 5.80105 12.7309 5.39579 42.1463 -25.9629 -11.1561
ITEM: TIMESTEP
8
ITEM: NUMBER OF ATOMS
272
ITEM: BOX BOUNDS pp pp pp
0.0000000000000000e+00 1.6500000000000000e+01
0.0000000000000000e+00 1.6500000000000000e+01
0.0000000000000000e+00 1.6500000000000000e+01
ITEM: ATOMS element xu yu zu fx fy fz
N 8.20068 14.6104 0.0476621 -51.6165 -36.7135 -64.0823
N 7.84214 14.1969 15.21 41.4408 17.5665 50.8912
N 7.89404 13.8036 14.1368 -6.23072 3.87998 11.3917
N 8.00687 6.95136 1.97926 -54.8143 2.34972 -42.6027
N 8.0427 8.17157 2.21501 15.9401 -14.598 1.1275
N 8.2503 9.27699 2.48259 -8.94065 -7.4955 -11.2058
N 16.01 4.1669 8.47632 -51.6514 -99.2045 82.4216
N 16.0883 5.291 8.08093 -73.9119 -343.159 137.734
N 16.3364 6.23005 7.70547 90.996 419.682 -158.979
N 9.86675 1.40285 13.3482 18.2014 14.132 10.4242
N 10.2395 2.2846 14.1554 -1.73671 50.4885 23.597
N 10.4517 3.20885 14.8912 -11.7413 -74.7427 -56.5075
N 4.12917 4.55562 10.6573 -14.5914 -32.0898 32.9135
N 3.06592 3.847 10.5664 206.778 127.794 41.2205
N 2.13728 3.43634 10.1806 -174.919 -83.2297 -59.0145
N 9.57861 8.01757 14.6907 -54.3316 43.786 -71.5436
N 9.81098 7.29427 15.5936 85.1067 -150.105 143.654
N 10.2408 6.43249 16.3814 -52.6679 97.274 -83.9119
N 6.25922 1.11838 13.8993 35.7393 31.169 10.0723
N 5.73328 2.25112 14.1336 156.875 -319.007 -25.8916
N 5.26494 3.20148 14.1293 -136.703 287.931 13.6622
N 11.4414 2.77879 10.6383 61.3448 -8.84841 -0.0491258
N 12.7735 2.94416 10.5441 -741.434 -120.937 149.64
N 13.7277 3.12533 10.3121 663.028 121.358 -146.425
N 6.90643 6.52741 13.9119 3.88776 -30.2101 -21.6486
N 7.34605 5.79181 12.9842 -21.3283 -22.9289 -10.5394
N 7.64742 5.0396 12.1195 -14.1809 45.3771 53.6545
N 3.52762 13.1729 0.725037 -47.3096 -36.6713 36.2101
N 2.96137 13.0303 1.91005 47.9337 -33.8192 31.2459
N 2.93572 12.706 3.07002 -13.2756 37.123 -101.772