LAMMPS data file generated from POSCAR

216 atoms
2 atom types

0.0 13.0619797427 xlo xhi
0.0 13.0619797427 ylo yhi
0.0 13.0619797427 zlo zhi
0.0 0.0 0.0 xy xz yz

Masses

1 12.0107
2 28.0855

Atoms

1 1 8.707986 8.707986 8.707986
2 2 8.707986 10.884983 10.884983
3 2 10.884983 8.707986 10.884983
4 2 10.884983 10.884983 8.707986
5 2 8.707986 8.707986 13.061980
6 2 8.707986 10.884983 2.176997
7 2 10.884983 8.707986 2.176997
8 2 10.884983 10.884983 13.061980
9 2 8.707986 8.707986 4.353993
10 2 8.707986 10.884983 6.530990
11 2 10.884983 8.707986 6.530990
12 2 10.884983 10.884983 4.353993
13 2 8.707986 0.000000 8.707986
14 2 8.707986 2.176997 10.884983
15 2 10.884983 0.000000 10.884983
16 2 10.884983 2.176997 8.707986
17 2 8.707986 0.000000 13.061980
18 2 8.707986 2.176997 2.176997
19 2 10.884983 0.000000 2.176997
20 2 10.884983 2.176997 0.000000
21 2 8.707986 0.000000 4.353993
22 2 8.707986 2.176997 6.530990
23 2 10.884983 0.000000 6.530990
24 2 10.884983 2.176997 4.353993
25 2 8.707986 4.353993 8.707986
26 2 8.707986 6.530990 10.884983
27 2 10.884983 4.353993 10.884983
28 2 10.884983 6.530990 8.707986
29 2 8.707986 4.353993 0.000000
30 2 8.707986 6.530990 2.176997
31 2 10.884983 4.353993 2.176997
32 2 10.884983 6.530990 0.000000
33 2 8.707986 4.353993 4.353993
34 2 8.707986 6.530990 6.530990
35 2 10.884983 4.353993 6.530990
36 2 10.884983 6.530990 4.353993
37 2 13.061980 8.707986 8.707986
38 2 13.061980 10.884983 10.884983
39 2 2.176997 8.707986 10.884983
40 2 2.176997 10.884983 8.707986
41 2 13.061980 8.707986 13.061980
42 2 13.061980 10.884983 2.176997
43 2 2.176997 8.707986 2.176997
44 2 2.176997 10.884983 0.000000
45 2 13.061980 8.707986 4.353993
46 2 13.061980 10.884983 6.530990
47 2 2.176997 8.707986 6.530990
48 2 2.176997 10.884983 4.353993
49 2 0.000000 0.000000 8.707986
50 2 -0.000000 2.176997 10.884983
51 2 2.176997 0.000000 10.884983
52 2 2.176997 2.176997 8.707986
53 2 0.000000 0.000000 0.000000
54 2 -0.000000 2.176997 2.176997
55 2 2.176997 0.000000 2.176997
56 2 2.176997 2.176997 0.000000
57 2 0.000000 0.000000 4.353993
58 2 -0.000000 2.176997 6.530990
59 2 2.176997 0.000000 6.530990
60 2 2.176997 2.176997 4.353993
61 2 -0.000000 4.353993 8.707986
62 2 -0.000000 6.530990 10.884983
63 2 2.176997 4.353993 10.884983
64 2 2.176997 6.530990 8.707986
65 2 -0.000000 4.353993 0.000000
66 2 -0.000000 6.530990 2.176997
67 2 2.176997 4.353993 2.176997
68 2 2.176997 6.530990 0.000000
69 2 -0.000000 4.353993 4.353993
70 2 -0.000000 6.530990 6.530990
71 2 2.176997 4.353993 6.530990
72 2 2.176997 6.530990 4.353993
73 2 4.353993 8.707986 8.707986
74 2 4.353993 10.884983 10.884983
75 2 6.530990 8.707986 10.884983
76 2 6.530990 10.884983 8.707986
77 2 4.353993 8.707986 0.000000
78 2 4.353993 10.884983 2.176997
79 2 6.530990 8.707986 2.176997
80 2 6.530990 10.884983 0.000000
81 2 4.353993 8.707986 4.353993
82 2 4.353993 10.884983 6.530990
83 2 6.530990 8.707986 6.530990
84 2 6.530990 10.884983 4.353993
85 2 4.353993 0.000000 8.707986
86 2 4.353993 2.176997 10.884983
87 2 6.530990 0.000000 10.884983
88 2 6.530990 2.176997 8.707986
89 2 4.353993 0.000000 0.000000
90 2 4.353993 2.176997 2.176997
91 2 6.530990 0.000000 2.176997
92 2 6.530990 2.176997 0.000000
93 2 4.353993 0.000000 4.353993
94 2 4.353993 2.176997 6.530990
95 2 6.530990 0.000000 6.530990
96 2 6.530990 2.176997 4.353993
97 2 4.353993 4.353993 8.707986
98 2 4.353993 6.530990 10.884983
99 2 6.530990 4.353993 10.884983
100 2 6.530990 6.530990 8.707986
101 2 4.353993 4.353993 0.000000
102 2 4.353993 6.530990 2.176997
103 2 6.530990 4.353993 2.176997
104 2 6.530990 6.530990 0.000000
105 2 4.353993 4.353993 4.353993
106 2 4.353993 6.530990 6.530990
107 2 6.530990 4.353993 6.530990
108 2 6.530990 6.530990 4.353993
109 2 11.973481 9.796485 11.973481
110 2 11.973481 11.973481 9.796485
111 2 9.796485 9.796485 9.796485
112 2 9.796485 11.973481 11.973481
113 2 11.973481 9.796485 3.265495
114 2 11.973481 11.973481 1.088498
115 2 9.796485 9.796485 1.088498
116 2 9.796485 11.973481 3.265495
117 2 11.973481 9.796485 7.619488
118 2 11.973481 11.973481 5.442492
119 2 9.796485 9.796485 5.442492
120 2 9.796485 11.973481 7.619488
121 2 11.973481 1.088498 11.973481
122 2 11.973481 3.265495 9.796485
123 2 9.796485 1.088498 9.796485
124 2 9.796485 3.265495 11.973481
125 2 11.973481 1.088498 3.265495
126 2 11.973481 3.265495 1.088498
127 2 9.796485 1.088498 1.088498
128 2 9.796485 3.265495 3.265495
129 2 11.973481 1.088498 7.619488
130 2 11.973481 3.265495 5.442492
131 2 9.796485 1.088498 5.442492
132 2 9.796485 3.265495 7.619488
133 2 11.973481 5.442492 11.973481
134 2 11.973481 7.619488 9.796485
135 2 9.796485 5.442492 9.796485
136 2 9.796485 7.619488 11.973481
137 2 11.973481 5.442492 3.265495
138 2 11.973481 7.619488 1.088498
139 2 9.796485 5.442492 1.088498
140 2 9.796485 7.619488 3.265495
141 2 11.973481 5.442492 7.619488
142 2 11.973481 7.619488 5.442492
143 2 9.796485 5.442492 5.442492
144 2 9.796485 7.619488 7.619488
145 2 3.265495 9.796485 11.973481
146 2 3.265495 11.973481 9.796485
147 2 1.088498 9.796485 9.796485
148 2 1.088498 11.973481 11.973481
149 2 3.265495 9.796485 3.265495
150 2 3.265495 11.973481 1.088498
151 2 1.088498 9.796485 1.088498
152 2 1.088498 11.973481 3.265495
153 2 3.265495 9.796485 7.619488
154 2 3.265495 11.973481 5.442492
155 2 1.088498 9.796485 5.442492
156 2 1.088498 11.973481 7.619488
157 2 3.265495 1.088498 11.973481
158 2 3.265495 3.265495 9.796485
159 2 1.088498 1.088498 9.796485
160 2 1.088498 3.265495 11.973481
161 2 3.265495 1.088498 3.265495
162 2 3.265495 3.265495 1.088498
163 2 1.088498 1.088498 1.088498
164 2 1.088498 3.265495 3.265495
165 2 3.265495 1.088498 7.619488
166 2 3.265495 3.265495 5.442492
167 2 1.088498 1.088498 5.442492
168 2 1.088498 3.265495 7.619488
169 2 3.265495 5.442492 11.973481
170 2 3.265495 7.619488 9.796485
171 2 1.088498 5.442492 9.796485
172 2 1.088498 7.619488 11.973481
173 2 3.265495 5.442492 3.265495
174 2 3.265495 7.619488 1.088498
175 2 1.088498 5.442492 1.088498
176 2 1.088498 7.619488 3.265495
177 2 3.265495 5.442492 7.619488
178 2 3.265495 7.619488 5.442492
179 2 1.088498 5.442492 5.442492
180 2 1.088498 7.619488 7.619488
181 2 7.619488 9.796485 11.973481
182 2 7.619488 11.973481 9.796485
183 2 5.442492 9.796485 9.796485
184 2 5.442492 11.973481 11.973481
185 2 7.619488 9.796485 3.265495
186 2 7.619488 11.973481 1.088498
187 2 5.442492 9.796485 1.088498
188 2 5.442492 11.973481 3.265495
189 2 7.619488 9.796485 7.619488
190 2 7.619488 11.973481 5.442492
191 2 5.442492 9.796485 5.442492
192 2 5.442492 11.973481 7.619488
193 2 7.619488 1.088498 11.973481
194 2 7.619488 3.265495 9.796485
195 2 5.442492 1.088498 9.796485
196 2 5.442492 3.265495 11.973481
197 2 7.619488 1.088498 3.265495
198 2 7.619488 3.265495 1.088498
199 2 5.442492 1.088498 1.088498
200 2 5.442492 3.265495 3.265495
201 2 7.619488 1.088498 7.619488
202 2 7.619488 3.265495 5.442492
203 2 5.442492 1.088498 5.442492
204 2 5.442492 3.265495 7.619488
205 2 7.619488 5.442492 11.973481
206 2 7.619488 7.619488 9.796485
207 2 5.442492 5.442492 9.796485
208 2 5.442492 7.619488 11.973481
209 2 7.619488 5.442492 3.265495
210 2 7.619488 7.619488 1.088498
211 2 5.442492 5.442492 1.088498
212 2 5.442492 7.619488 3.265495
213 2 7.619488 5.442492 7.619488
214 2 7.619488 7.619488 5.442492
215 2 5.442492 5.442492 5.442492
216 2 5.442492 7.619488 7.619488
