ITEM: TIMESTEP
0
ITEM: NUMBER OF ATOMS
216
ITEM: BOX BOUNDS xy xz yz pp pp pp
0.0000000000000000e+00 1.3061979742700000e+01 0.0000000000000000e+00
0.0000000000000000e+00 1.3061979742700000e+01 0.0000000000000000e+00
0.0000000000000000e+00 1.3061979742700000e+01 0.0000000000000000e+00
ITEM: ATOMS id element xu yu zu fx fy fz
1 Si 8.79351 8.75661 8.6418 15.4278 -56.7021 -2.45989
2 Si 8.6922 10.9256 10.7842 20.3775 -5.81492 -49.34
3 Si 10.8635 8.64581 10.9483 22.5514 2.74049 -85.0046
4 Si 10.9408 10.7867 8.68523 2.10805 74.7891 -23.979
5 Si 8.80257 8.94165 13.132 -301.524 -314.079 -178.025
6 Si 8.74901 10.8011 2.09441 5.59626 18.2367 -8.5047
7 Si 10.7899 8.6989 2.09663 -72.9181 -89.612 -47.7891
8 Si 10.9063 10.9259 13.0211 22.9091 -14.5247 -37.1107
9 Si 8.85781 8.69542 4.14172 22.8897 49.924 106.43
10 Si 8.83106 10.9329 6.535 -14.2485 -10.0911 -28.7472
11 Si 10.8397 8.56973 6.50661 15.5477 34.1557 11.7257
12 Si 11.0598 10.9111 4.29622 -30.044 -52.9715 -22.1136
13 Si 8.70701 -0.0843075 8.76382 31.0826 124.125 95.4524
14 Si 8.45865 2.19051 11.0476 79.6851 36.6349 36.2025
15 Si 10.8275 0.109621 10.876 -28.5562 -120.55 18.5627
16 Si 10.8207 2.34807 8.76135 -0.0425842 -22.5398 -22.3344
17 Si 8.66682 0.0372785 12.9708 11.9141 70.7192 -18.6416
18 Si 8.61949 2.05319 2.11945 -51.287 87.0573 26.4403
19 Si 10.9489 -0.137839 2.07852 75.3014 91.0648 3.83441
20 Si 10.9812 2.04247 0.177995 -18.6149 -33.5637 -56.1779
21 Si 8.77476 -0.141246 4.32461 17.7044 29.3105 -4.08816
22 Si 8.74343 2.28221 6.58681 95.5895 -70.0879 47.4531
23 Si 10.7781 -0.0277618 6.43185 143.134 -70.6346 83.301
24 Si 10.8609 2.12844 4.4669 11.4264 132.462 31.8655
25 Si 8.67865 4.58774 8.71994 71.8798 -152.642 82.6209
26 Si 8.59521 6.59838 10.925 1.54352 20.2971 50.3683
27 Si 10.7621 4.38763 10.8421 -105.487 18.2781 7.83528
28 Si 10.9652 6.6925 8.66598 32.7849 5.07011 16.7614
29 Si 8.62348 4.38537 -0.0735246 109.574 -193.993 167.739
30 Si 8.67989 6.48618 2.25998 -14.326 -14.4915 -15.2274
31 Si 10.7945 4.33234 2.21281 -37.0372 -10.0328 -36.7965
32 Si 10.9913 6.42321 0.222212 -113.551 67.7605 -37.5341
33 Si 8.76264 4.3738 4.35551 -33.387 32.9496 -13.4685
34 Si 8.62284 6.40848 6.50348 -95.8869 60.8892 -81.347
35 Si 10.9676 4.5509 6.48959 -100.745 -146.551 -124.099
36 Si 10.9383 6.51948 4.3425 103.269 17.3618 -22.4012
37 Si 13.0061 8.64141 8.70251 -111.995 -42.5619 -86.8938
38 Si 26.1285 10.8448 10.8677 62.6062 24.2739 -21.3413
39 Si 2.12865 8.62445 10.8992 -40.7829 80.2736 -34.1655
40 Si 2.21577 10.8513 8.66829 5.82657 26.0135 9.28946
41 Si 13.0187 8.70926 12.9577 33.763 -7.30517 43.9091
42 Si 26.1426 10.9898 2.24314 -10.9545 -13.902 47.8989
43 Si 2.19467 8.7667 2.21314 -125.103 23.0473 66.2431
44 Si 2.08997 10.8558 0.00305836 3.35776 0.403759 -26.9694
45 Si 13.054 8.67087 4.20687 -32.2608 62.0636 29.1281
46 Si 26.1832 10.8685 6.41394 20.8617 -23.3938 17.305
47 Si 2.18074 8.77002 6.58234 -52.8611 -69.87 -17.1017
48 Si 2.12325 10.8062 4.21274 16.9801 71.1963 36.4242
49 Si -0.0631085 0.138266 8.66927 54.2863 -61.7505 26.2143
50 Si 0.020421 2.34011 10.859 4.55907 -35.0261 74.386
51 Si 2.12657 0.0682557 10.9552 -41.0699 -14.8345 -84.6591
52 Si 2.13005 2.2619 8.63309 104.703 -38.9535 -26.326
53 Si 0.00147227 0.00328913 -0.126698 67.8011 52.7107 55.3454
54 Si -0.100359 2.09605 2.32218 51.3058 -73.4575 -117.392
55 Si 2.18444 0.07041 2.03941 69.1467 -2.1789 -8.57565
56 Si 2.26794 2.23535 -0.049636 51.4053 16.3701 102.342
57 Si 0.190671 0.0610959 4.32819 -324.502 -385.767 -337.447
58 Si 0.00224398 2.12935 6.64299 29.5969 -74.483 13.9515
59 Si 2.07022 -0.0692851 6.53473 -24.0245 26.0752 -26.5104
60 Si 2.06939 2.26348 4.45068 56.052 -25.3772 -22.2316
61 Si 0.0488693 4.38507 8.81108 -13.1921 4.15174 -3.79058
62 Si 0.00562107 6.55381 11.0476 -136.238 -173.671 -117.384
63 Si 2.25388 4.30284 10.9479 -46.0627 -7.22366 -22.1284
64 Si 2.11561 6.59433 8.65088 49.3996 31.3809 4.87918
65 Si -0.10569 4.28242 0.0712599 18.5224 -2.37641 -6.39094
66 Si 0.0449499 6.42869 2.34842 -49.421 -28.2496 -54.5177
67 Si 2.18453 4.33464 2.21096 -67.9898 23.6726 -8.43622
68 Si 2.19899 6.45892 -0.0412588 29.6528 50.4781 100.599
69 Si 0.128834 4.46361 4.49604 -158.974 -91.9732 -161.007
70 Si -0.0947653 6.45558 6.61414 16.5747 -104.661 -51.2316
71 Si 2.11079 4.25125 6.50468 29.2336 56.3163 -11.0732
72 Si 2.31696 6.51415 4.40517 4.06086 29.2585 0.512449
73 Si 4.40175 8.6806 8.61918 202.81 -141.128 101.892
74 Si 4.3792 10.8779 10.9224 -50.8921 -23.9404 12.6341
75 Si 6.62239 8.71883 11.0018 -20.561 -24.3454 -17.3089
76 Si 6.43456 10.7183 8.63129 -24.8997 -6.22367 35.6107
77 Si 4.24127 8.60452 0.0943083 20.6371 5.11341 12.9365
78 Si 4.35346 10.9383 2.04626 9.55037 8.14811 13.4492
79 Si 6.62283 8.74865 2.26126 -3.94849 49.6577 24.3921
80 Si 6.57697 10.9644 0.0861915 -133.92 -114.411 -76.0293
81 Si 4.43594 8.8077 4.40179 -26.8373 -19.3258 -73.0079
82 Si 4.31494 10.8996 6.61865 -86.8111 -12.2915 -1.35843
83 Si 6.63362 8.87919 6.43248 64.6489 35.143 -60.5133
84 Si 6.57071 10.9524 4.33993 -3.38531 -39.3854 11.0559
85 Si 4.23868 -0.12287 8.7629 39.7251 110.73 -40.55
86 Si 4.30078 2.26973 10.8638 -127.772 -144.598 -107.509
87 Si 6.4355 0.0752616 10.7099 -21.3892 -41.3122 -29.8807
88 Si 6.52119 2.30112 8.81581 -40.4684 13.2109 25.333
89 Si 4.32986 0.000164251 -0.0677921 -49.0524 -13.7879 -101.052
90 Si 4.30185 2.12629 2.18275 36.9767 14.3016 -45.7438
91 Si 6.53337 -0.124247 2.1199 -25.1258 -41.9151 27.3412
92 Si 6.30875 2.13494 -0.113393 3.71913 -7.50908 1.30198
93 Si 4.29894 -0.0265457 4.45827 30.556 46.3108 -23.7333
94 Si 4.40948 2.16647 6.53333 29.455 -35.6555 82.9842
95 Si 6.5911 -0.0751477 6.73813 80.7069 30.1229 41.7023
96 Si 6.54603 2.07319 4.35432 41.9669 -4.26632 47.401
97 Si 4.42407 4.41469 8.67962 11.2111 -11.8307 -3.61248
98 Si 4.29357 6.5758 10.8054 71.6329 12.3467 55.887
99 Si 6.47061 4.45025 10.9761 -22.271 -4.92594 -35.0424
100 Si 6.54943 6.73303 8.65 -13.1295 19.0095 -0.446521
101 Si 4.3759 4.41699 -0.0147541 3.40634 -39.034 -32.8462
102 Si 4.49605 6.44615 2.27557 -38.7576 46.7055 -9.43203
103 Si 6.31784 4.3072 2.06303 -8.92576 -60.0426 40.0009
104 Si 6.48156 6.67348 -0.0169078 92.5085 -34.4866 14.0932
105 Si 4.3126 4.30761 4.45598 23.813 3.59853 30.0279
106 Si 4.32912 6.57602 6.43382 39.297 -80.568 77.2546
107 Si 6.70415 4.32242 6.56807 35.5541 76.6715 -74.3416
108 Si 6.56052 6.5498 4.37322 -21.0181 -51.2248 -51.3292
109 Si 11.9996 9.75012 11.8495 -45.9128 42.942 8.28841
110 Si 11.9694 11.9811 9.82476 -12.6292 31.4988 -4.93239
111 Si 9.8461 9.80321 9.75642 1.81414 -16.2553 59.2368
112 Si 9.68576 11.9154 11.9918 47.5596 10.8598 -30.7951
113 Si 11.9174 9.72568 3.03956 47.3828 21.819 25.2148
114 Si 12.1088 11.9214 0.943365 40.1849 -11.8366 4.86255
115 Si 9.84559 9.839 1.04337 316.144 207.163 255.57
116 Si 9.84551 11.9685 3.18953 -3.52725 -39.6934 12.5683
117 Si 11.9974 9.82276 7.54147 2.17208 -38.0975 -65.5512
118 Si 12.007 11.96 5.45855 27.4982 102.567 -14.8626
119 Si 9.85887 9.80534 5.47047 6.21507 4.74357 -65.5736
120 Si 9.78142 12.0504 7.65863 74.5845 -19.5363 50.648
121 Si 11.9831 1.03681 11.9403 7.37079 96.8023 -59.8487
122 Si 11.9535 3.33616 9.86949 -17.1427 17.3068 -9.04247
123 Si 9.83777 1.28467 9.94129 -140.738 -6.58747 -55.7556
124 Si 9.80297 3.20443 12.1404 61.7291 -54.0745 -23.5965
125 Si 11.9554 1.04996 3.48473 -79.0072 -128.381 -69.6342
126 Si 11.9361 3.22993 1.15017 13.6917 23.2249 57.2832
127 Si 9.7012 1.04799 1.10884 55.3204 -60.916 4.24924
128 Si 9.75587 3.197 3.23341 -19.0124 -73.5093 10.9536
129 Si 11.8374 1.12984 7.70091 -107.072 -22.71 -54.8718
130 Si 12.1398 3.29278 5.54689 -75.5738 -21.3545 -50.4262
131 Si 9.78162 1.04638 5.48199 -150.501 110.109 -51.3012
132 Si 9.79931 3.42847 7.68281 9.54079 64.8635 -51.3996
133 Si 11.9261 5.39071 12.0293 -23.4439 -16.4936 -65.7886
134 Si 12.0768 7.56537 9.82761 6.22298 -0.434713 72.0105
135 Si 9.70909 5.65933 9.7263 88.6631 40.9592 48.1735
136 Si 9.80513 7.69476 12.0008 -5.46331 -162.631 149.88
137 Si 11.9328 5.30901 3.17854 31.8085 -32.4546 69.9692
138 Si 12.1003 7.59761 1.12705 46.0556 28.6722 48.6493
139 Si 9.66767 5.33491 1.07927 -21.0622 11.3145 -17.8605
140 Si 9.82135 7.49697 3.28112 71.9491 -61.8447 -57.1717
141 Si 11.9306 5.39225 7.65074 86.6453 10.6319 189.827
142 Si 12.0716 7.59209 5.50015 29.5549 42.7919 -70.4013
143 Si 9.8524 5.5503 5.43615 -45.8608 -14.0153 -19.6578
144 Si 9.77322 7.49539 7.55951 -88.5081 -21.1338 -4.67375
145 Si 3.22807 9.73056 12.0264 13.971 21.3607 -30.4845
146 Si 3.24973 11.9742 9.85348 -96.2028 -54.7603 96.8486
147 Si 0.986255 9.69911 9.61667 113.568 83.8122 108.628
148 Si 1.12083 11.9687 11.953 -2.25431 -45.6906 -31.2309
149 Si 3.29022 9.81611 3.22789 87.4995 -2.78266 -11.2674
150 Si 3.25107 11.9241 0.959641 -17.5476 16.4582 -6.89142
151 Si 1.06405 9.82638 1.06881 -72.2884 -56.6536 47.3208
152 Si 1.22592 12.076 3.15999 19.7389 -3.77162 15.2868
153 Si 3.28109 9.61958 7.71369 -104.191 132.013 -85.1016
154 Si 3.20777 12.0016 5.47762 -54.9825 -121.31 -28.9516
155 Si 1.16032 9.78227 5.37724 -28.9048 -64.8838 -22.995
156 Si 1.06058 11.9533 7.60725 -67.2726 -23.5648 99.7871
157 Si 3.15259 1.16269 11.9388 96.0564 -41.7118 -20.4188
158 Si 3.29881 3.29543 9.73426 -11.9185 12.3514 -60.014
159 Si 1.11105 1.25225 9.74339 -1.37398 -66.3102 38.2831
160 Si 1.14904 3.26286 12.1195 -78.9167 57.9742 -33.6395
161 Si 3.24934 1.04991 3.29245 -57.0404 24.051 62.0455
162 Si 3.27868 3.35863 1.07738 33.8432 -10.4103 17.828
163 Si 1.2035 1.14423 0.977433 -151.885 74.9269 11.5502
164 Si 1.01784 3.21535 3.2847 -17.1192 51.7232 -46.9439
165 Si 3.1738 0.981171 7.54923 56.1254 55.621 24.1874
166 Si 3.269 3.15606 5.57115 17.0463 2.46901 -14.8688
167 Si 1.05098 1.02754 5.3853 255.968 355.46 399.546
168 Si 1.07261 3.30873 7.63885 -75.6967 30.7446 0.950247
169 Si 3.27572 5.4939 11.9583 56.6576 -1.14693 -35.0079
170 Si 3.27178 7.68085 9.7663 -9.85621 29.7713 -45.3817
171 Si 1.17376 5.49678 9.77644 8.16736 6.02741 107.372
172 Si 1.11094 7.51467 11.9439 145.516 130.019 126.556
173 Si 3.2811 5.3813 3.30141 13.8738 -8.25556 -37.1605
174 Si 3.17523 7.66968 1.24294 45.4517 -179.809 9.83309
175 Si 1.01649 5.48183 1.04221 5.46086 -18.2801 2.18367
176 Si 1.07687 7.49826 3.304 128.388 71.794 20.7573
177 Si 3.22611 5.44591 7.62201 7.87834 -7.63101 -43.9349
178 Si 3.35204 7.6641 5.40409 -61.6128 92.2832 -0.935233
179 Si 1.1709 5.46957 5.428 118.724 180.246 145.052
180 Si 0.951186 7.54394 7.60441 64.252 78.5801 -63.3341
181 Si 7.68417 9.83877 11.9342 -5.32064 52.0484 45.9897
182 Si 7.51506 11.9488 9.78451 -63.4553 -41.6609 -41.364
183 Si 5.40596 9.69715 9.9029 -2.85798 -35.588 8.7906
184 Si 5.51239 11.9411 11.9221 40.9843 26.014 17.6989
185 Si 7.74769 9.84858 3.31609 -62.0043 65.002 52.2111
186 Si 7.70638 11.9393 0.989975 120.662 80.4522 106.866
187 Si 5.46599 9.74119 1.13809 10.373 -33.58 -48.5213
188 Si 5.33963 11.9178 3.3382 -9.57512 13.3689 -28.1923
189 Si 7.69372 9.84539 7.6344 32.743 33.1931 -8.01491
190 Si 7.64938 12.0114 5.45349 -40.8336 13.8367 57.3473
191 Si 5.35707 9.87351 5.49016 56.9219 79.957 14.9745
192 Si 5.36642 11.9617 7.66335 27.1234 32.9904 22.2804
193 Si 7.44854 0.958391 11.9123 -28.3431 -54.8021 68.6225
194 Si 7.69892 3.32241 9.83705 33.1648 81.9097 -12.69
195 Si 5.37511 1.16045 9.7495 -83.3808 6.97171 -75.3173
196 Si 5.32664 3.20707 11.8772 120.619 158.973 93.7095
197 Si 7.58956 0.963455 3.2633 4.20451 -27.5245 28.1981
198 Si 7.45453 3.1472 0.982655 45.4634 15.2658 15.351
199 Si 5.40472 0.9286 1.02654 23.9222 48.1999 99.9911
200 Si 5.45199 3.1419 3.39285 -23.0579 42.7657 -31.723
201 Si 7.67559 1.26207 7.76482 10.3272 -51.164 -4.29936
202 Si 7.69926 3.19715 5.49636 -62.9804 27.3552 -139.007
203 Si 5.48834 0.989701 5.54434 42.772 -34.4686 10.021
204 Si 5.57118 3.34822 7.54449 -88.0117 -49.3319 14.7218
205 Si 7.64933 5.41338 12.0394 -158.225 185.471 -104.917
206 Si 7.60426 7.71048 9.78878 36.9444 45.8803 -26.7664
207 Si 5.51606 5.58495 9.7013 28.2073 -14.4278 21.1294
208 Si 5.45659 7.73159 12.0391 -106.996 6.36443 -103.42
209 Si 7.47246 5.36464 3.20876 -10.9503 -67.3503 -1.28321
210 Si 7.61542 7.65926 1.18655 83.4855 5.06466 -93.4732
211 Si 5.43467 5.48814 0.990366 28.9607 59.3056 -21.0648
212 Si 5.50408 7.69372 3.30504 -39.3974 1.35479 -5.98512
213 Si 7.59807 5.49259 7.71104 -151.792 79.4694 -64.5067
214 Si 7.59255 7.68487 5.25431 112.298 58.4348 75.948
215 Si 5.57398 5.46078 5.42272 -31.9174 -71.1244 44.8388
216 Si 5.60528 7.72348 7.42945 -63.7668 -20.1268 -53.6558
