LAMMPS (29 Aug 2024 - Update 1)
##########################################
# USER-SPECIFIED VARIABLES
##########################################

variable tstep               equal  0.5                                        # timestep in fs
variable run_steps           equal  10000                                      # Number of steps to run
variable temperature         equal  3000                                       # Temperature (K)
variable pressure            equal  296077                                     # Target pressure (atm)

variable io_freq             equal  100                                        # Frequency of dumping trajectory (500 steps, 250 fs)

variable data_file           string /scratch/08034/tg873340/LAMMPS_test/lammps_data_files/diamond_3.21gcc_512atoms.data.in
variable param_file          string /scratch/08034/tg873340/LAMMPS_test/chimes_parameter_files/published_params.Carbon-2.0.Small.2+3+4b.Tersoff.txt

########################################
# GENERAL CONTROLS
########################################

units           real                          # Required for CHIMES pair style
newton          on                            # Required for CHIMES pair style
atom_style      atomic                        # Required for CHIMES pair style
atom_modify     sort 0 0.0                    # Prevent sorting (to maintain 3b parent/neighbor relationships)
atom_modify     map array                     # May improve efficiency

neighbor        2.0 bin
neigh_modify    delay 0 every 1 check yes

########################################
# INITIALIZATION CONTROLS
########################################

read_data       ${data_file}
read_data       /scratch/08034/tg873340/LAMMPS_test/lammps_data_files/diamond_3.21gcc_512atoms.data.in
Reading data file ...
  orthogonal box = (0 0 0) to (14.69002 14.69002 14.69002)
  1 by 1 by 1 MPI processor grid
  reading atoms ...
  512 atoms
  read_data CPU = 0.002 seconds
velocity        all create ${temperature} 1234 dist gaussian mom yes rot yes loop all  # Assign initial velocity (comment this line out when reading from a restart file)
velocity        all create 3000 1234 dist gaussian mom yes rot yes loop all  


########################################
# FORCE FIELD CONTROLS
########################################

pair_style      chimesFF
pair_coeff      * * ${param_file}
pair_coeff      * * /scratch/08034/tg873340/LAMMPS_test/chimes_parameter_files/published_params.Carbon-2.0.Small.2+3+4b.Tersoff.txt


########################################
# RESTART CONTROLS
########################################

restart         ${io_freq} a.restart b.restart	 # Write restart files
restart         100 a.restart b.restart	 

########################################
# RUN, DUMP, AND THERMO CONTROLS
########################################

##### Set the ensemble
variable temp_damp  equal  v_tstep*100.0	# Temperature damping coefficient
variable press_damp equal  v_tstep*1000.0	# Pressure damping coefficient
fix             1 all nvt temp ${temperature} ${temperature} ${temp_damp}
fix             1 all nvt temp 3000 ${temperature} ${temp_damp}
fix             1 all nvt temp 3000 3000 ${temp_damp}
fix             1 all nvt temp 3000 3000 50

##### Define thermo output
variable e_ensemble        equal f_1
variable e_conserve        equal ke+pe+v_e_ensemble
thermo_style    custom step time temp press density ke pe etotal v_e_ensemble v_e_conserve econserve
thermo_modify   line one format float %20.5f flush yes
thermo          ${io_freq}
thermo          100

##### Dump all atoms
#dump            dump_1 carbon ${io_freq} traj.lammpstrj id type element xu yu zu vx vy vz
#dump_modify     dump_1 sort id element C

##### Run the simulation

timestep        ${tstep}
timestep        0.5
run             ${run_steps} upto
run             10000 upto

CITE-CITE-CITE-CITE-CITE-CITE-CITE-CITE-CITE-CITE-CITE-CITE-CITE

Your simulation uses code contributions which should be cited:

- Type Label Framework: https://doi.org/10.1021/acs.jpcb.3c08419

@Article{Gissinger24,
 author = {Jacob R. Gissinger, Ilia Nikiforov, Yaser Afshar, Brendon Waters, Moon-ki Choi, Daniel S. Karls, Alexander Stukowski, Wonpil Im, Hendrik Heinz, Axel Kohlmeyer, and Ellad B. Tadmor},
 title = {Type Label Framework for Bonded Force Fields in LAMMPS},
 journal = {J. Phys. Chem. B},
 year =    2024,
 volume =  128,
 number =  13,
 pages =   {3282–-3297}
}

CITE-CITE-CITE-CITE-CITE-CITE-CITE-CITE-CITE-CITE-CITE-CITE-CITE

Generated 0 of 0 mixed pair_coeff terms from geometric mixing rule
Neighbor list info ...
  update: every = 1 steps, delay = 0 steps, check = yes
  max neighbors/atom: 2000, page size: 100000
  master list distance cutoff = 7
  ghost atom cutoff = 7
  binsize = 3.5, bins = 5 5 5
  1 neighbor lists, perpetual/occasional/extra = 1 0 0
  (1) pair chimesFF, perpetual
      attributes: full, newton on, ghost
      pair build: full/bin/ghost
      stencil: full/ghost/bin/3d
      bin: standard
Per MPI rank memory allocation (min/avg/max) = 5.381 | 5.381 | 5.381 Mbytes
   Step          Time           Temp          Press         Density         KinEng         PotEng         TotEng      v_e_ensemble   v_e_conserve    Econserve   
         0               0.00000           3000.00000        -243441.37095              3.22122           4569.58181        -106757.39823        -102187.81642              0.00000        -102187.81642        -102187.81642
       100              50.00000           1694.10198        -188253.57051              3.22122           2580.44586        -104287.24403        -101706.79817           -476.79294        -102183.59111        -102183.59111
       200             100.00000           1900.03145        -175403.14082              3.22122           2894.11639        -103778.49173        -100884.37534          -1298.22021        -102182.59555        -102182.59555
       300             150.00000           2033.40637        -151107.19647              3.22122           3097.27225        -103018.60065         -99921.32840          -2260.09833        -102181.42673        -102181.42673
       400             200.00000           2345.19283        -132436.24933              3.22122           3572.18349        -102439.55445         -98867.37096          -3313.33172        -102180.70268        -102180.70268
       500             250.00000           2624.00655         -99223.92049              3.22122           3996.87086        -101850.49235         -97853.62149          -4326.04768        -102179.66917        -102179.66917
       600             300.00000           3332.63377         -93377.64702              3.22122           5076.24755        -102081.77605         -97005.52850          -5174.55080        -102180.07930        -102180.07930
       700             350.00000           3295.99911         -74878.99056              3.22122           5020.44586        -101553.72582         -96533.27996          -5645.64339        -102178.92336        -102178.92336
       800             400.00000           3179.20901         -70229.70495              3.22122           4842.55188        -101461.89089         -96619.33900          -5559.59340        -102178.93241        -102178.93241
       900             450.00000           2995.37655         -90525.43650              3.22122           4562.53939        -101699.29825         -97136.75885          -5042.85368        -102179.61253        -102179.61253
      1000             500.00000           2899.32805         -99546.82547              3.22122           4416.23890        -101990.90621         -97574.66731          -4605.04622        -102179.71353        -102179.71353
      1100             550.00000           2843.49877        -108802.77489              3.22122           4331.20008        -101991.82446         -97660.62439          -4519.07147        -102179.69586        -102179.69586
      1200             600.00000           3002.01176         -98990.41106              3.22122           4572.64611        -101935.87400         -97363.22789          -4816.07350        -102179.30139        -102179.30139
      1300             650.00000           3152.86995         -91369.03018              3.22122           4802.43238        -101761.77586         -96959.34348          -5220.35201        -102179.69548        -102179.69548
      1400             700.00000           3296.65899         -97186.99464              3.22122           5021.45098        -101804.50346         -96783.05248          -5396.46369        -102179.51617        -102179.51617
      1500             750.00000           3079.21615         -92438.58862              3.22122           4690.24337        -101632.32129         -96942.07792          -5237.13759        -102179.21551        -102179.21551
      1600             800.00000           2893.41944        -103055.76328              3.22122           4407.23894        -101677.17341         -97269.93447          -4909.54263        -102179.47709        -102179.47709
      1700             850.00000           2945.45540         -98899.08354              3.22122           4486.49981        -101985.09910         -97498.59929          -4681.14172        -102179.74101        -102179.74101
      1800             900.00000           2967.04487        -103866.10042              3.22122           4519.38476        -102025.40960         -97506.02485          -4673.87713        -102179.90198        -102179.90198
      1900             950.00000           3078.63674         -96527.32068              3.22122           4689.36081        -101952.33122         -97262.97041          -4916.67717        -102179.64758        -102179.64758
      2000            1000.00000           3183.21916         -90887.63569              3.22122           4848.66013        -101813.18141         -96964.52128          -5214.86727        -102179.38855        -102179.38855
      2100            1050.00000           2891.74057         -73114.49185              3.22122           4404.68171        -101252.81177         -96848.13007          -5330.63391        -102178.76397        -102178.76397
      2200            1100.00000           3176.93586         -89880.00111              3.22122           4839.08944        -101834.10572         -96995.01629          -5184.44893        -102179.46522        -102179.46522
      2300            1150.00000           2764.33108         -86442.07308              3.22122           4210.61234        -101507.48979         -97296.87745          -4882.51177        -102179.38922        -102179.38922
      2400            1200.00000           3006.99197         -98774.70463              3.22122           4580.23193        -102036.26925         -97456.03731          -4723.72183        -102179.75915        -102179.75915
      2500            1250.00000           2981.22336        -100322.03276              3.22122           4540.98135        -101928.66670         -97387.68535          -4792.00401        -102179.68937        -102179.68937
      2600            1300.00000           3118.88711         -87005.25585              3.22122           4750.66994        -101866.56956         -97115.89963          -5063.65535        -102179.55498        -102179.55498
      2700            1350.00000           3088.16794         -81115.09112              3.22122           4703.87869        -101629.27863         -96925.39994          -5253.72603        -102179.12597        -102179.12597
      2800            1400.00000           3070.01703         -87776.04814              3.22122           4676.23133        -101623.13561         -96946.90428          -5232.29849        -102179.20277        -102179.20277
      2900            1450.00000           2935.27500         -91117.34517              3.22122           4470.99308        -101785.65926         -97314.66618          -4864.61123        -102179.27741        -102179.27741
      3000            1500.00000           2867.82475        -101580.17123              3.22122           4368.25327        -101885.79649         -97517.54322          -4661.98689        -102179.53011        -102179.53011
      3100            1550.00000           2902.73643         -92918.30146              3.22122           4421.43052        -101821.63613         -97400.20561          -4778.99155        -102179.19716        -102179.19716
      3200            1600.00000           3044.56259         -97327.46684              3.22122           4637.45927        -101829.23139         -97191.77212          -4987.54303        -102179.31515        -102179.31515
      3300            1650.00000           3033.07346         -95070.71500              3.22122           4619.95910        -101734.16058         -97114.20148          -5065.02268        -102179.22417        -102179.22417
      3400            1700.00000           3014.22407         -95648.07021              3.22122           4591.24782        -101723.01213         -97131.76431          -5047.53302        -102179.29734        -102179.29734
      3500            1750.00000           2854.01212         -85814.91149              3.22122           4347.21395        -101528.72574         -97181.51179          -4997.47792        -102178.98972        -102178.98972
      3600            1800.00000           3056.01512         -88907.00820              3.22122           4654.90370        -101932.97290         -97278.06921          -4901.30178        -102179.37099        -102179.37099
      3700            1850.00000           2838.70378         -98687.51246              3.22122           4323.89638        -101915.84148         -97591.94511          -4587.53126        -102179.47637        -102179.47637
      3800            1900.00000           2827.80139         -96217.91686              3.22122           4307.28993        -101952.21264         -97644.92272          -4534.56616        -102179.48888        -102179.48888
      3900            1950.00000           2983.53243        -102074.95968              3.22122           4544.49850        -101836.01627         -97291.51777          -4887.83515        -102179.35292        -102179.35292
      4000            2000.00000           2895.48363         -90142.24908              3.22122           4410.38311        -101485.26415         -97074.88104          -5103.73885        -102178.61989        -102178.61989
      4100            2050.00000           2944.03108         -87934.73541              3.22122           4484.33029        -101548.32512         -97063.99483          -5114.80035        -102178.79519        -102178.79519
      4200            2100.00000           2805.61602         -95754.91558              3.22122           4273.49731        -101466.86554         -97193.36823          -4985.34068        -102178.70891        -102178.70891
      4300            2150.00000           2937.98593         -98193.86104              3.22122           4475.12235        -102003.25731         -97528.13496          -4651.20827        -102179.34323        -102179.34323
      4400            2200.00000           2740.07248        -103108.61488              3.22122           4173.66179        -101864.41431         -97690.75252          -4488.47682        -102179.22934        -102179.22934
      4500            2250.00000           2929.15923         -91032.73660              3.22122           4461.67757        -101737.22319         -97275.54562          -4903.84554        -102179.39117        -102179.39117
      4600            2300.00000           3080.56683         -86644.25749              3.22122           4692.30072        -101711.12266         -97018.82194          -5160.22075        -102179.04269        -102179.04269
      4700            2350.00000           3075.80380         -88348.61661              3.22122           4685.04569        -101728.45574         -97043.41005          -5135.98452        -102179.39457        -102179.39457
      4800            2400.00000           2967.14814         -91220.97534              3.22122           4519.54205        -101747.23478         -97227.69272          -4951.60984        -102179.30257        -102179.30257
      4900            2450.00000           2964.73975         -97680.79540              3.22122           4515.87360        -101963.21876         -97447.34515          -4732.29916        -102179.64431        -102179.64431
      5000            2500.00000           3013.11364        -105691.23826              3.22122           4589.55642        -102096.22834         -97506.67192          -4673.10802        -102179.77993        -102179.77993
      5100            2550.00000           2968.02989         -89887.85029              3.22122           4520.88512        -101649.57804         -97128.69292          -5050.12704        -102178.81996        -102178.81996
      5200            2600.00000           2979.70734         -84593.88969              3.22122           4538.67215        -101417.19688         -96878.52473          -5300.15626        -102178.68099        -102178.68099
      5300            2650.00000           3022.42903         -80822.96501              3.22122           4603.74558        -101562.79984         -96959.05426          -5219.67232        -102178.72658        -102178.72658
      5400            2700.00000           3037.05091         -94318.74524              3.22122           4626.01753        -101879.40639         -97253.38886          -4926.16209        -102179.55095        -102179.55095
      5500            2750.00000           2801.83802         -93972.97349              3.22122           4267.74268        -101700.10864         -97432.36596          -4746.49070        -102178.85666        -102178.85666
      5600            2800.00000           3004.11351         -88725.71040              3.22122           4575.84748        -101944.04260         -97368.19512          -4811.29967        -102179.49479        -102179.49479
      5700            2850.00000           3073.43483         -94075.17424              3.22122           4681.43729        -101950.67023         -97269.23294          -4910.12150        -102179.35443        -102179.35443
      5800            2900.00000           3019.40644         -96333.27789              3.22122           4599.14158        -101782.47087         -97183.32928          -4995.73937        -102179.06865        -102179.06865
      5900            2950.00000           3073.88797         -82428.14418              3.22122           4682.12752        -101762.59505         -97080.46753          -5098.95549        -102179.42302        -102179.42302
      6000            3000.00000           3122.29184         -89980.11148              3.22122           4755.85600        -101684.09271         -96928.23671          -5251.15936        -102179.39608        -102179.39608
      6100            3050.00000           3192.05380         -82930.91214              3.22122           4862.11699        -101620.61786         -96758.50088          -5420.20329        -102178.70417        -102178.70417
      6200            3100.00000           2922.48298         -76506.79956              3.22122           4451.50835        -101356.86317         -96905.35483          -5273.10279        -102178.45762        -102178.45762
      6300            3150.00000           3004.48461         -86386.05209              3.22122           4576.41274        -101857.20552         -97280.79278          -4898.71065        -102179.50342        -102179.50342
      6400            3200.00000           2836.26058         -94351.03352              3.22122           4320.17492        -101700.54540         -97380.37048          -4798.87968        -102179.25016        -102179.25016
      6500            3250.00000           3065.19317         -94613.70424              3.22122           4668.88364        -101929.82699         -97260.94335          -4918.62582        -102179.56917        -102179.56917
      6600            3300.00000           3181.81061         -81883.62288              3.22122           4846.51462        -101737.02063         -96890.50601          -5288.86454        -102179.37055        -102179.37055
      6700            3350.00000           3192.90718         -75339.26672              3.22122           4863.41686        -101546.61985         -96683.20300          -5495.95896        -102179.16196        -102179.16196
      6800            3400.00000           3146.57052         -80400.98659              3.22122           4792.83714        -101620.71475         -96827.87761          -5351.19009        -102179.06770        -102179.06770
      6900            3450.00000           3082.04109         -95138.08255              3.22122           4694.54630        -101717.14320         -97022.59691          -5156.73356        -102179.33046        -102179.33046
      7000            3500.00000           2944.92186         -94300.40944              3.22122           4485.68712        -101721.24158         -97235.55445          -4943.67320        -102179.22765        -102179.22765
      7100            3550.00000           2929.76171         -93000.70668              3.22122           4462.59527        -101821.68017         -97359.08490          -4820.26112        -102179.34602        -102179.34602
      7200            3600.00000           2803.23750         -82158.95738              3.22122           4269.87437        -101597.67624         -97327.80187          -4851.15959        -102178.96147        -102178.96147
      7300            3650.00000           3055.92576         -82753.15348              3.22122           4654.76759        -101589.88136         -96935.11377          -5244.01956        -102179.13332        -102179.13332
      7400            3700.00000           3131.57740         -81084.41269              3.22122           4769.99970        -101546.23624         -96776.23654          -5402.79951        -102179.03605        -102179.03605
      7500            3750.00000           3028.51857         -82544.74081              3.22122           4613.02112        -101617.75669         -97004.73557          -5174.24099        -102178.97656        -102178.97656
      7600            3800.00000           2905.87989         -94862.60403              3.22122           4426.21862        -101735.65081         -97309.43219          -4869.87669        -102179.30888        -102179.30888
      7700            3850.00000           2956.32482         -89123.00516              3.22122           4503.05604        -101839.46638         -97336.41034          -4843.09987        -102179.51020        -102179.51020
      7800            3900.00000           2915.77174         -90791.99480              3.22122           4441.28583        -101676.00641         -97234.72058          -4944.62509        -102179.34567        -102179.34567
      7900            3950.00000           3169.17326         -93899.02001              3.22122           4827.26549        -101891.34949         -97064.08400          -5115.32302        -102179.40702        -102179.40702
      8000            4000.00000           3082.32856         -76806.64409              3.22122           4694.98418        -101452.14735         -96757.16318          -5421.48136        -102178.64453        -102178.64453
      8100            4050.00000           3226.16158         -74994.95265              3.22122           4914.06975        -101315.92970         -96401.85995          -5776.55720        -102178.41715        -102178.41715
      8200            4100.00000           3150.62357         -80801.87913              3.22122           4799.01071        -101489.07891         -96690.06819          -5488.90146        -102178.96965        -102178.96965
      8300            4150.00000           2895.45560         -77982.95863              3.22122           4410.34040        -101386.31812         -96975.97771          -5202.91506        -102178.89277        -102178.89277
      8400            4200.00000           3277.60769         -96849.73720              3.22122           4992.43216        -102137.19873         -97144.76657          -5035.19923        -102179.96580        -102179.96580
      8500            4250.00000           3061.96577        -101539.09516              3.22122           4663.96769        -101989.36366         -97325.39596          -4854.04175        -102179.43771        -102179.43771
      8600            4300.00000           2939.27397         -92057.84255              3.22122           4477.08428        -101878.04694         -97400.96266          -4778.65986        -102179.62252        -102179.62252
      8700            4350.00000           3000.81723         -89344.99483              3.22122           4570.82661        -101800.36870         -97229.54209          -4949.98416        -102179.52625        -102179.52625
      8800            4400.00000           3053.36296         -81213.22988              3.22122           4650.86395        -101512.18485         -96861.32090          -5317.40480        -102178.72569        -102178.72569
      8900            4450.00000           3105.78342         -87759.73545              3.22122           4730.71047        -101552.12885         -96821.41837          -5357.59742        -102179.01579        -102179.01579
      9000            4500.00000           2907.92693         -92630.51392              3.22122           4429.33666        -101546.10419         -97116.76753          -5062.20918        -102178.97671        -102178.97671
      9100            4550.00000           3029.93253         -99559.21381              3.22122           4615.17486        -101985.03142         -97369.85656          -4809.77910        -102179.63566        -102179.63566
      9200            4600.00000           3069.77767        -100476.85159              3.22122           4675.86674        -102001.52361         -97325.65687          -4854.13544        -102179.79231        -102179.79231
      9300            4650.00000           3003.43739         -90793.70627              3.22122           4574.81762        -101752.23767         -97177.42005          -5002.07064        -102179.49069        -102179.49069
      9400            4700.00000           3179.35909         -84009.13340              3.22122           4842.78048        -101801.40048         -96958.62000          -5221.15508        -102179.77507        -102179.77507
      9500            4750.00000           3188.42013         -77309.92029              3.22122           4856.58221        -101606.87547         -96750.29326          -5428.83265        -102179.12591        -102179.12591
      9600            4800.00000           3151.32441         -76903.39849              3.22122           4800.07823        -101381.08266         -96581.00442          -5597.82899        -102178.83342        -102178.83342
      9700            4850.00000           3187.89367         -89513.58423              3.22122           4855.78031        -101722.37420         -96866.59390          -5312.70823        -102179.30213        -102179.30213
      9800            4900.00000           3092.28761         -92119.75800              3.22122           4710.15373        -101931.81447         -97221.66075          -4958.28407        -102179.94481        -102179.94481
      9900            4950.00000           3027.25790         -95646.83540              3.22122           4611.10088        -101957.07349         -97345.97262          -4833.85503        -102179.82765        -102179.82765
     10000            5000.00000           2970.91890         -91776.57389              3.22122           4525.28566        -101848.85201         -97323.56636          -4856.09589        -102179.66225        -102179.66225
Loop time of 12536.2 on 1 procs for 10000 steps with 512 atoms

Performance: 0.034 ns/day, 696.454 hours/ns, 0.798 timesteps/s, 408.418 atom-step/s
99.5% CPU use with 1 MPI tasks x no OpenMP threads

MPI task timing breakdown:
Section |  min time  |  avg time  |  max time  |%varavg| %total
---------------------------------------------------------------
Pair    | 12533      | 12533      | 12533      |   0.0 | 99.98
Neigh   | 1.8306     | 1.8306     | 1.8306     |   0.0 |  0.01
Comm    | 0.20408    | 0.20408    | 0.20408    |   0.0 |  0.00
Output  | 0.71464    | 0.71464    | 0.71464    |   0.0 |  0.01
Modify  | 0.10733    | 0.10733    | 0.10733    |   0.0 |  0.00
Other   |            | 0.0525     |            |       |  0.00

Nlocal:            512 ave         512 max         512 min
Histogram: 1 0 0 0 0 0 0 0 0 0
Nghost:           3223 ave        3223 max        3223 min
Histogram: 1 0 0 0 0 0 0 0 0 0
Neighs:              0 ave           0 max           0 min
Histogram: 1 0 0 0 0 0 0 0 0 0
FullNghs:       123446 ave      123446 max      123446 min
Histogram: 1 0 0 0 0 0 0 0 0 0

Total # of neighbors = 123446
Ave neighs/atom = 241.10547
Neighbor list builds = 103
Dangerous builds = 0
Total wall time: 3:28:58
