LAMMPS (29 Aug 2024 - Update 1)
########################################
########################################
# Water at 300 K - Example for fingerprint generation (using a very bad model!)
########################################
########################################


##########################################
# USER-SPECIFIED VARIABLES
##########################################

variable temp    equal 300	# Temperature (K)
variable seed  	 equal 1111	# Random seed
variable iofrq   equal 1	# Output frequency: thermo and trajectory MUST use same value if using Active learning driver
variable delt    equal 0.2	# Timestep (fs)
variable nstep   equal 10	# Number of steps for simulation


########################################
# GENERAL CONTROLS
########################################

units           real                          # Required for CHIMES pair style
newton          on                            # Required for CHIMES pair style
atom_style      atomic                        # Required for CHIMES pair style
atom_modify     sort 0 0.0                    # Required for CHIMES pair style
atom_modify     map array                     # Required for CHIMES pair style

neighbor        1.0 bin
neigh_modify    delay 0 every 1 check yes     # Required for CHIMES pair style


########################################
# INITIALIZATION CONTROLS
########################################

read_data       data.in
Reading data file ...
  orthogonal box = (0 0 0) to (8.6091309 8.6091309 8.6091309)
  3 by 3 by 4 MPI processor grid
  reading atoms ...
  96 atoms
  read_data CPU = 0.004 seconds
velocity        all create ${temp} ${seed} loop all mom yes rot yes dist gaussian
velocity        all create 300 ${seed} loop all mom yes rot yes dist gaussian
velocity        all create 300 1111 loop all mom yes rot yes dist gaussian


########################################
# FORCE FIELD CONTROLS
########################################

pair_style	chimesFF fingerprint 2
pair_coeff	* * params.txt

########################################
# RUN, DUMP, AND THERMO CONTROLS
########################################

thermo_style    custom step time ke pe etotal temp press pxx pyy pzz pxy pxz pyz vol
thermo_modify   line one format float %20.5f flush yes
thermo          ${iofrq}
thermo          1

dump            1 all custom ${iofrq} traj.lammpstrj element xu yu zu fx fy fz
dump            1 all custom 1 traj.lammpstrj element xu yu zu fx fy fz
dump_modify     1 sort id element O H

timestep        ${delt}
timestep        0.2
run             ${nstep}
run             10

CITE-CITE-CITE-CITE-CITE-CITE-CITE-CITE-CITE-CITE-CITE-CITE-CITE

Your simulation uses code contributions which should be cited:

- Type Label Framework: https://doi.org/10.1021/acs.jpcb.3c08419

@Article{Gissinger24,
 author = {Jacob R. Gissinger, Ilia Nikiforov, Yaser Afshar, Brendon Waters, Moon-ki Choi, Daniel S. Karls, Alexander Stukowski, Wonpil Im, Hendrik Heinz, Axel Kohlmeyer, and Ellad B. Tadmor},
 title = {Type Label Framework for Bonded Force Fields in LAMMPS},
 journal = {J. Phys. Chem. B},
 year =    2024,
 volume =  128,
 number =  13,
 pages =   {3282–-3297}
}

CITE-CITE-CITE-CITE-CITE-CITE-CITE-CITE-CITE-CITE-CITE-CITE-CITE

WARNING: No fixes with time integration, atoms won't move (../verlet.cpp:60)
Generated 0 of 1 mixed pair_coeff terms from geometric mixing rule
Neighbor list info ...
  update: every = 1 steps, delay = 0 steps, check = yes
  max neighbors/atom: 2000, page size: 100000
  master list distance cutoff = 5
  ghost atom cutoff = 5
  binsize = 2.5, bins = 4 4 4
  1 neighbor lists, perpetual/occasional/extra = 1 0 0
  (1) pair chimesFF, perpetual
      attributes: full, newton on, ghost
      pair build: full/bin/ghost
      stencil: full/ghost/bin/3d
      bin: standard
Per MPI rank memory allocation (min/avg/max) = 2.986 | 2.986 | 2.987 Mbytes
   Step          Time          KinEng         PotEng         TotEng          Temp          Press           Pxx            Pyy            Pzz            Pxy            Pxz            Pyz           Volume    
         0               0.00000             84.95309            273.08837            358.04146            300.00000         248090.57918         248659.68728         235673.23207         259938.81818           -508.51386         -27588.60462          48043.60617            638.08412
         1               0.20000             84.95309            273.08837            358.04146            300.00000         248090.57918         248659.68728         235673.23207         259938.81818           -508.51386         -27588.60462          48043.60617            638.08412
         2               0.40000             84.95309            273.08837            358.04146            300.00000         248090.57918         248659.68728         235673.23207         259938.81818           -508.51386         -27588.60462          48043.60617            638.08412
         3               0.60000             84.95309            273.08837            358.04146            300.00000         248090.57918         248659.68728         235673.23207         259938.81818           -508.51386         -27588.60462          48043.60617            638.08412
         4               0.80000             84.95309            273.08837            358.04146            300.00000         248090.57918         248659.68728         235673.23207         259938.81818           -508.51386         -27588.60462          48043.60617            638.08412
         5               1.00000             84.95309            273.08837            358.04146            300.00000         248090.57918         248659.68728         235673.23207         259938.81818           -508.51386         -27588.60462          48043.60617            638.08412
         6               1.20000             84.95309            273.08837            358.04146            300.00000         248090.57918         248659.68728         235673.23207         259938.81818           -508.51386         -27588.60462          48043.60617            638.08412
         7               1.40000             84.95309            273.08837            358.04146            300.00000         248090.57918         248659.68728         235673.23207         259938.81818           -508.51386         -27588.60462          48043.60617            638.08412
         8               1.60000             84.95309            273.08837            358.04146            300.00000         248090.57918         248659.68728         235673.23207         259938.81818           -508.51386         -27588.60462          48043.60617            638.08412
         9               1.80000             84.95309            273.08837            358.04146            300.00000         248090.57918         248659.68728         235673.23207         259938.81818           -508.51386         -27588.60462          48043.60617            638.08412
        10               2.00000             84.95309            273.08837            358.04146            300.00000         248090.57918         248659.68728         235673.23207         259938.81818           -508.51386         -27588.60462          48043.60617            638.08412
Loop time of 0.258143 on 36 procs for 10 steps with 96 atoms

Performance: 0.669 ns/day, 35.853 hours/ns, 38.738 timesteps/s, 3.719 katom-step/s
23.3% CPU use with 36 MPI tasks x no OpenMP threads

MPI task timing breakdown:
Section |  min time  |  avg time  |  max time  |%varavg| %total
---------------------------------------------------------------
Pair    | 0.14432    | 0.20214    | 0.24482    |   5.9 | 78.30
Neigh   | 0          | 0          | 0          |   0.0 |  0.00
Comm    | 0.0099492  | 0.052635   | 0.11044    |  11.6 | 20.39
Output  | 0.0015517  | 0.0023284  | 0.0033288  |   1.0 |  0.90
Modify  | 2.489e-06  | 2.861e-06  | 3.351e-06  |   0.0 |  0.00
Other   |            | 0.001041   |            |       |  0.40

Nlocal:        2.66667 ave           5 max           0 min
Histogram: 2 0 5 0 10 0 8 0 8 3
Nghost:        291.556 ave         303 max         274 min
Histogram: 1 1 0 2 7 7 5 7 4 2
Neighs:              0 ave           0 max           0 min
Histogram: 36 0 0 0 0 0 0 0 0 0
FullNghs:      206.611 ave         402 max           0 min
Histogram: 2 4 1 9 1 7 1 8 0 3

Total # of neighbors = 7438
Ave neighs/atom = 77.479167
Neighbor list builds = 0
Dangerous builds = 0
Total wall time: 0:00:00
