LAMMPS (29 Aug 2024 - Update 1)
##########################################
# USER-SPECIFIED VARIABLES
##########################################

variable tstep               equal  0.5                                        # timestep in fs
variable run_steps           equal  500                                        # Number of steps to run
variable temperature         equal  3000                                       # Temperature (K)
variable pressure            equal  30                                         # Target pressure (atm)

variable io_freq             equal  10                                         # Frequency of dumping trajectory (500 steps, 250 fs)

variable data_file           string /scratch/08034/tg873340/LAMMPS_test/lammps_data_files/diamond_3.21gcc_512atoms.data.in
variable param_file          string /scratch/08034/tg873340/LAMMPS_test/chimes_parameter_files/published_params.Carbon-2.0.Small.2+3+4b.Tersoff.txt

########################################
# GENERAL CONTROLS
########################################

units           real                          # Required for CHIMES pair style
newton          on                            # Required for CHIMES pair style
atom_style      atomic                        # Required for CHIMES pair style
atom_modify     sort 0 0.0                    # Prevent sorting (to maintain 3b parent/neighbor relationships)
atom_modify     map array                     # May improve efficiency

neighbor        1.5 bin
neigh_modify    delay 0 every 1 check yes

########################################
# INITIALIZATION CONTROLS
########################################

read_data       ${data_file}
read_data       /scratch/08034/tg873340/LAMMPS_test/lammps_data_files/diamond_3.21gcc_512atoms.data.in
Reading data file ...
  orthogonal box = (0 0 0) to (14.69002 14.69002 14.69002)
  1 by 1 by 1 MPI processor grid
  reading atoms ...
  512 atoms
  read_data CPU = 0.002 seconds
velocity        all create ${temperature} 1234 dist gaussian mom yes rot yes loop all  # Assign initial velocity (comment this line out when reading from a restart file)
velocity        all create 3000 1234 dist gaussian mom yes rot yes loop all  


########################################
# FORCE FIELD CONTROLS
########################################

pair_style      chimesFF
pair_coeff      * * ${param_file}
pair_coeff      * * /scratch/08034/tg873340/LAMMPS_test/chimes_parameter_files/published_params.Carbon-2.0.Small.2+3+4b.Tersoff.txt


########################################
# RESTART CONTROLS
########################################

restart         ${io_freq} a.restart b.restart	 # Write restart files
restart         10 a.restart b.restart	 

########################################
# RUN, DUMP, AND THERMO CONTROLS
########################################

##### Set the ensemble
variable temp_damp  equal  v_tstep*100.0	# Temperature damping coefficient
variable press_damp equal  v_tstep*1000.0	# Pressure damping coefficient
fix             1 all nvt temp ${temperature} ${temperature} ${temp_damp}
fix             1 all nvt temp 3000 ${temperature} ${temp_damp}
fix             1 all nvt temp 3000 3000 ${temp_damp}
fix             1 all nvt temp 3000 3000 50

##### Define thermo output
variable e_ensemble        equal f_1
variable e_conserve        equal ke+pe+v_e_ensemble
thermo_style    custom step time temp press density ke pe etotal v_e_ensemble v_e_conserve econserve
thermo_modify   line one format float %20.5f flush yes
thermo          ${io_freq}
thermo          10

##### Dump all atoms
#dump            dump_1 carbon ${io_freq} traj.lammpstrj id type element xu yu zu vx vy vz
#dump_modify     dump_1 sort id element C

##### Run the simulation

timestep        ${tstep}
timestep        0.5
run             ${run_steps} upto
run             500 upto

CITE-CITE-CITE-CITE-CITE-CITE-CITE-CITE-CITE-CITE-CITE-CITE-CITE

Your simulation uses code contributions which should be cited:

- Type Label Framework: https://doi.org/10.1021/acs.jpcb.3c08419

@Article{Gissinger24,
 author = {Jacob R. Gissinger, Ilia Nikiforov, Yaser Afshar, Brendon Waters, Moon-ki Choi, Daniel S. Karls, Alexander Stukowski, Wonpil Im, Hendrik Heinz, Axel Kohlmeyer, and Ellad B. Tadmor},
 title = {Type Label Framework for Bonded Force Fields in LAMMPS},
 journal = {J. Phys. Chem. B},
 year =    2024,
 volume =  128,
 number =  13,
 pages =   {3282–-3297}
}

CITE-CITE-CITE-CITE-CITE-CITE-CITE-CITE-CITE-CITE-CITE-CITE-CITE

Generated 0 of 0 mixed pair_coeff terms from geometric mixing rule
Neighbor list info ...
  update: every = 1 steps, delay = 0 steps, check = yes
  max neighbors/atom: 2000, page size: 100000
  master list distance cutoff = 6.5
  ghost atom cutoff = 6.5
  binsize = 3.25, bins = 5 5 5
  1 neighbor lists, perpetual/occasional/extra = 1 0 0
  (1) pair chimesFF, perpetual
      attributes: full, newton on, ghost
      pair build: full/bin/ghost
      stencil: full/ghost/bin/3d
      bin: standard
Per MPI rank memory allocation (min/avg/max) = 4.618 | 4.618 | 4.618 Mbytes
   Step          Time           Temp          Press         Density         KinEng         PotEng         TotEng      v_e_ensemble   v_e_conserve    Econserve   
         0               0.00000           3000.00000        -243441.37095              3.22122           4569.58181        -106757.39823        -102187.81642              0.00000        -102187.81642        -102187.81642
        10               5.00000           1385.38420        -193052.90434              3.22122           2110.20881        -104289.58671        -102179.37791             -3.05086        -102182.42877        -102182.42877
        20              10.00000            530.05542        -179887.11083              3.22122            807.37720        -102975.55521        -102168.17801            -13.51679        -102181.69480        -102181.69480
        30              15.00000           1535.82898        -208662.01532              3.22122           2339.36539        -104470.26331        -102130.89792            -53.72703        -102184.62495        -102184.62495
        40              20.00000           1762.00418        -210655.83416              3.22122           2683.87407        -104740.20295        -102056.32887           -127.75463        -102184.08350        -102184.08350
        50              25.00000           1376.58746        -194139.49154              3.22122           2096.80967        -104096.25090        -101999.44123           -183.49153        -102182.93277        -102182.93277
        60              30.00000           1541.69912        -191522.37572              3.22122           2348.30674        -104301.90940        -101953.60266           -229.88463        -102183.48729        -102183.48729
        70              35.00000           1788.15045        -199768.51211              3.22122           2723.69992        -104620.44535        -101896.74543           -287.64479        -102184.39022        -102184.39022
        80              40.00000           1414.35568        -198496.72895              3.22122           2154.33800        -103992.25950        -101837.92150           -344.59915        -102182.52065        -102182.52065
        90              45.00000           1582.50699        -195057.17023              3.22122           2410.46504        -104190.73421        -101780.26916           -403.19533        -102183.46450        -102183.46450
       100              50.00000           1694.10198        -188253.57051              3.22122           2580.44586        -104287.24403        -101706.79817           -476.79294        -102183.59111        -102183.59111
       110              55.00000           1523.45776        -182638.24654              3.22122           2320.52162        -103956.18268        -101635.66106           -547.00286        -102182.66392        -102182.66392
       120              60.00000           1767.70593        -188634.95420              3.22122           2692.55895        -104254.79574        -101562.23679           -621.02653        -102183.26332        -102183.26332
       130              65.00000           1927.77361        -189761.18683              3.22122           2936.37307        -104413.77432        -101477.40125           -706.28397        -102183.68522        -102183.68522
       140              70.00000           1638.53728        -180195.11238              3.22122           2495.81004        -103892.27065        -101396.46061           -786.20140        -102182.66201        -102182.66201
       150              75.00000           1590.28112        -185688.69752              3.22122           2422.30657        -103745.67324        -101323.36667           -859.34419        -102182.71086        -102182.71086
       160              80.00000           1756.23491        -188616.57925              3.22122           2675.08636        -103917.51840        -101242.43203           -940.62575        -102183.05778        -102183.05778
       170              85.00000           1771.15861        -179283.95999              3.22122           2697.81805        -103854.23932        -101156.42127          -1026.22456        -102182.64584        -102182.64584
       180              90.00000           1867.66561        -173624.01393              3.22122           2844.81693        -103914.10694        -101069.29001          -1113.47188        -102182.76189        -102182.76189
       190              95.00000           1975.93150        -175485.32302              3.22122           3009.72688        -103986.67069        -100976.94381          -1205.90543        -102182.84924        -102182.84924
       200             100.00000           1900.03145        -175403.14082              3.22122           2894.11639        -103778.49173        -100884.37534          -1298.22021        -102182.59555        -102182.59555
       210             105.00000           1773.03977        -171755.80920              3.22122           2700.68342        -103497.45893        -100796.77551          -1385.40824        -102182.18375        -102182.18375
       220             110.00000           1873.85131        -167974.73963              3.22122           2854.23895        -103562.50401        -100708.26506          -1474.08237        -102182.34742        -102182.34742
       230             115.00000           1995.95550        -165670.31104              3.22122           3040.22731        -103652.17655        -100611.94924          -1570.38284        -102182.33208        -102182.33208
       240             120.00000           2114.39001        -164035.25139              3.22122           3220.62604        -103733.51949        -100512.89345          -1669.24877        -102182.14222        -102182.14222
       250             125.00000           2220.50580        -167052.79574              3.22122           3382.26097        -103791.57771        -100409.31673          -1773.30573        -102182.62246        -102182.62246
       260             130.00000           1984.73268        -159732.21904              3.22122           3023.13278        -103334.03346        -100310.90068          -1870.78389        -102181.68457        -102181.68457
       270             135.00000           2039.40092        -160399.61391              3.22122           3106.40311        -103323.86307        -100217.45996          -1964.48943        -102181.94939        -102181.94939
       280             140.00000           2136.09262        -166870.02199              3.22122           3253.68333        -103369.95883        -100116.27550          -2065.87826        -102182.15377        -102182.15377
       290             145.00000           1973.19447        -154155.07201              3.22122           3005.55786        -103022.95971        -100017.40185          -2164.06712        -102181.46897        -102181.46897
       300             150.00000           2033.40637        -151107.19647              3.22122           3097.27225        -103018.60065         -99921.32840          -2260.09833        -102181.42673        -102181.42673
       310             155.00000           2353.66568        -159351.76201              3.22122           3585.08929        -103400.38162         -99815.29233          -2366.66318        -102181.95550        -102181.95550
       320             160.00000           2420.14268        -155346.22790              3.22122           3686.34666        -103388.74827         -99702.40161          -2479.40658        -102181.80819        -102181.80819
       330             165.00000           2246.69802        -146499.21335              3.22122           3422.15681        -103019.83887         -99597.68207          -2583.54276        -102181.22483        -102181.22483
       340             170.00000           2259.72913        -140567.59272              3.22122           3442.00571        -102939.17800         -99497.17229          -2684.06452        -102181.23682        -102181.23682
       350             175.00000           2375.09772        -143422.82482              3.22122           3617.73444        -103010.12836         -99392.39392          -2789.11518        -102181.50910        -102181.50910
       360             180.00000           2344.47617        -137193.15063              3.22122           3571.09188        -102857.39945         -99286.30756          -2894.63892        -102180.94648        -102180.94648
       370             185.00000           2495.86180        -133555.32292              3.22122           3801.68156        -102982.21237         -99180.53081          -3000.57395        -102181.10477        -102181.10477
       380             190.00000           2618.08854        -135888.07663              3.22122           3987.85659        -103057.76759         -99069.91100          -3111.56993        -102181.48093        -102181.48093
       390             195.00000           2386.63616        -131491.41140              3.22122           3635.30973        -102600.77969         -98965.46996          -3215.05367        -102180.52363        -102180.52363
       400             200.00000           2345.19283        -132436.24933              3.22122           3572.18349        -102439.55445         -98867.37096          -3313.33172        -102180.70268        -102180.70268
       410             205.00000           2403.98886        -128704.36269              3.22122           3661.74126        -102427.69132         -98765.95006          -3414.93477        -102180.88483        -102180.88483
       420             210.00000           2427.97363        -117172.88469              3.22122           3698.27471        -102360.03359         -98661.75888          -3518.48713        -102180.24601        -102180.24601
       430             215.00000           2697.23143        -120263.82602              3.22122           4108.40656        -102662.12552         -98553.71895          -3627.13642        -102180.85538        -102180.85538
       440             220.00000           2778.28922        -118025.74522              3.22122           4231.87329        -102673.69459         -98441.82130          -3738.87329        -102180.69458        -102180.69458
       450             225.00000           2674.36492        -112936.15689              3.22122           4073.57642        -102411.23071         -98337.65428          -3842.46891        -102180.12319        -102180.12319
       460             230.00000           2701.77967        -113766.24938              3.22122           4115.33442        -102353.45977         -98238.12535          -3942.30002        -102180.42537        -102180.42537
       470             235.00000           2744.62914        -111606.73030              3.22122           4180.60247        -102319.28325         -98138.68078          -4041.18430        -102179.86508        -102179.86508
       480             240.00000           2969.35649        -115387.10998              3.22122           4522.90580        -102561.13091         -98038.22511          -4142.47641        -102180.70152        -102180.70152
       490             245.00000           2811.41698        -105975.37703              3.22122           4282.33330        -102223.38358         -97941.05028          -4238.96351        -102180.01379        -102180.01379
       500             250.00000           2624.00655         -99223.92049              3.22122           3996.87086        -101850.49235         -97853.62149          -4326.04768        -102179.66917        -102179.66917
Loop time of 550.986 on 1 procs for 500 steps with 512 atoms

Performance: 0.039 ns/day, 612.206 hours/ns, 0.907 timesteps/s, 464.622 atom-step/s
99.5% CPU use with 1 MPI tasks x no OpenMP threads

MPI task timing breakdown:
Section |  min time  |  avg time  |  max time  |%varavg| %total
---------------------------------------------------------------
Pair    | 549.81     | 549.81     | 549.81     |   0.0 | 99.79
Neigh   | 0.76703    | 0.76703    | 0.76703    |   0.0 |  0.14
Comm    | 0.01179    | 0.01179    | 0.01179    |   0.0 |  0.00
Output  | 0.38829    | 0.38829    | 0.38829    |   0.0 |  0.07
Modify  | 0.0053166  | 0.0053166  | 0.0053166  |   0.0 |  0.00
Other   |            | 0.002734   |            |       |  0.00

Nlocal:            512 ave         512 max         512 min
Histogram: 1 0 0 0 0 0 0 0 0 0
Nghost:           3037 ave        3037 max        3037 min
Histogram: 1 0 0 0 0 0 0 0 0 0
Neighs:              0 ave           0 max           0 min
Histogram: 1 0 0 0 0 0 0 0 0 0
FullNghs:        88864 ave       88864 max       88864 min
Histogram: 1 0 0 0 0 0 0 0 0 0

Total # of neighbors = 88864
Ave neighs/atom = 173.5625
Neighbor list builds = 50
Dangerous builds = 0
Total wall time: 0:09:12
